
:LABEL1: Calculations in /gpfs/data/fs71152/pickemVeCoCo/Si
:LABEL2: on l48 at Thu  3 Sep 14:40:43 CEST 2020
:LABEL3: using WIEN2k_19.1 (Release 25/6/2019) in /home/fs71152/pickemVeCoCo/wien2k_19.1
:LABEL4: using the command: run_lapw -ec 0.0001 -cc 0.0001
 Flat Integration
 New Mode for Coulomb Integral
 Consistent 3/8+Simpson combinations
 Extension of core to zero
 LDM version in phi
 Fifth-order quadrature in outwin


            ---------
:ITE001:  1. ITERATION
            ---------

:NATO :    1 INDEPENDENT AND    2 TOTAL ATOMS IN UNITCELL
       SUBSTANCE: blebleble                                                   

       LATTICE                      = F   
:POT  : POTENTIAL OPTION EX_LDA EC_LDA VX_LDA VC_LDA
:LAT  : LATTICE CONSTANTS= 10.26291 10.26291 10.26291    1.571    1.571    1.571
:VOL  : UNIT CELL VOLUME =     270.24152
       MODE OF CALCULATION IS       = RELA
       NON-SPINPOLARIZED CALCULATION
:IFFT  : FFT-parameters:   80   80   80 Factor: 2.00


   CONVERGENCE PARAMETER FOR PSEUDOCHARGE: NCON=  9
   MAXIMAL VALUE OF RMT(JATOM)*ABSK(NKK) : RK  =26.51350


:VKCOUL :  VK-COUL convergence: 0.580E-05
       ATOMNUMBER=  1 Si1        VCOUL-ZERO =  0.13536E+00
:FIT001: LUSE= 13 SIGMA OF V-XC FIT FOR ATOM  1  0.8398761E-03
:FIT001: LUSE= 13 SIGMA OF V-XC FIT FOR ATOM  1  0.8398761E-03
:DEN  : DENSITY INTEGRAL  =          -523.62863927   (Ry)
       ELS_POTENTIAL_AT Z=0 and Z=0.5:   0.43516   0.43516
       ELS_POTENTIAL_AT Y=0 and Y=0.5:   0.00000   0.00000
:VZERO:v0,v0c,v0x  -0.26504   0.43516  -0.70019 v5,v5c,v5x  -0.26504   0.43516  -0.70019
:VZERY:v0,v0c,v0x  -0.70917   0.00000  -0.70917 v5,v5c,v5x  -0.70917   0.00000  -0.70917
:VZERX:v0,v0c,v0x  -0.70917   0.00000  -0.70917 v5,v5c,v5x  -0.70917   0.00000  -0.70917
:LMAX-WF:   10   Non-Spherical LMAX:   4

          ATOMIC SPHERE DEPENDENT PARAMETERS FOR ATOM  Si1       
:e__0001: OVERALL ENERGY PARAMETER IS    0.3000
          OVERALL BASIS SET ON ATOM IS LAPW
:E0_0001: E( 0)=    0.3000
             APW+lo
:E1_0001: E( 1)=    0.3000
             APW+lo

       K=   0.00000   0.00000   0.00000            1
:RKM  : MATRIX SIZE   145LOs:   8  RKM= 6.63  WEIGHT= 1.00  PGR:    
       EIGENVALUES ARE:
:EIG00001:      -0.5288671    0.3391783    0.3391783    0.3391783    0.5444647
:EIG00006:       0.5444647    0.5444647    0.5768182    0.9308996    0.9308996
:EIG00011:       0.9412273    1.1949871    1.1949871    1.1949871    1.4987942
       ********************************************************

:KPT   :      NUMBER OF K-POINTS:    35
       Insulator, EF-inconsistency corrected
:GAP (global)   :  0.064756 Ry =     0.881 eV (accurate value if proper k-mesh)
         Bandranges (emin - emax) and occupancy:
:BAN00001:   1   -0.528867   -0.233933  2.00000000
:BAN00002:   2   -0.221128    0.339178  2.00000000
:BAN00003:   3    0.031718    0.339178  2.00000000
:BAN00004:   4    0.102547    0.339178  2.00000000
:BAN00005:   5    0.403934    0.637348  0.00000000
:BAN00006:   6    0.434571    0.779375  0.00000000
:BAN00007:   7    0.544465    1.030679  0.00000000
:BAN00008:   8    0.576818    1.044673  0.00000000
:BAN00009:   9    0.820297    1.207480  0.00000000
        Energy to separate low and high energystates: -999.00000


:NOE  : NUMBER OF ELECTRONS          =    8.000

:FER  : F E R M I - ENERGY(TETRAH.M.)=   0.3391783121
:GMA  : POTENTIAL AND CHARGE CUT-OFF  12.00 Ry**.5

:POS001: ATOM    1 X,Y,Z = 0.87500 0.37500 0.37500  MULT= 2  ZZ= 14.000  Si1       

       LMMAX  6
       LM=   0 0  4 0  4 4  6 0  6 4 -3 2

:CHA001: TOTAL VALENCE CHARGE INSIDE SPHERE   1 =   2.3907    (RMT=  2.2100 )
:PCS001: PARTIAL CHARGES SPHERE =  1 S,P,D,F,      D-EG,D-T2G 
:QTL001: 0.9642 1.3162 0.0997 0.0082 0.0000 0.0000 0.0000 0.0149 0.0848 0.0000 0.0000 0.0000
        Q-s-low E-s-low   Q-p-low E-p-low   Q-d-low E-d-low   Q-f-low E-f-low
:EPL001:  0.0000 10.0000    0.0000 10.0000    0.0000 10.0000    0.0000 10.0000
        Q-s-hi  E-s-hi    Q-p-hi  E-p-hi    Q-d-hi  E-d-hi    Q-f-hi  E-f-hi 
:EPH001:  0.9642 -0.2377    1.3162  0.1106    0.0997  0.0973    0.0082 -0.0235

:CHA  : TOTAL VALENCE CHARGE INSIDE UNIT CELL =       8.000000

:SUM  : SUM OF EIGENVALUES =          -0.200170461


        1.ATOM      Si1                   4 CORE STATES
:1S 001: 1S                -129.918330687 Ry
:2S 001: 2S                  -9.420185602 Ry
:2PP001: 2P*                 -6.281048480 Ry
:2P 001: 2P                  -6.233621339 Ry
:CINT001 Core Integral Atom   1    9.998657

       DENSITY AT NUCLEUS
        JATOM        VALENCE       SEMI-CORE          CORE           TOTAL
:RTO001:   1        7.793955        0.000000     1868.422805     1876.216760
     
       CHARGES OF NEW CHARGE DENSITY
:NTO   : INTERSTITIAL CHARGE =     3.218581
:NPC   : PW Pseudocharge     =     5.414237
:NTO001: CHARGE SPHERE  1    =    12.389367

:NEC01: NUCLEAR AND ELECTRONIC CHARGE     28.00000    27.99731
     
       CHARGES OF OLD CHARGE DENSITY
:OTO   : INTERSTITIAL CHARGE =     3.456192
:OPC   : PW Pseudocharge     =     6.305380
:OTO001: CHARGE SPHERE  1    =    12.272603

:NEC02: NUCLEAR AND ELECTRONIC CHARGE     28.00000    28.00140
     
       CONVERGENCE TEST
:DTO001: DIFFERENCE IN SPHERE  1 =  0.1482776

:DIS  :  CHARGE DISTANCE       ( 0.1482776 for atom    1 spin 1)      0.1482776
 PW Mixed is           49
 
******************************************************
* MULTISECANT MIXING VER9 RELEASE 10.4.0              *
* Standard Mode with controls                        *
* Fixed density scale                                *
* Regularization       1.000E-04                     *
* Trust Upper Limit    5.000E+00                     *
* Max Number of Memory Steps    8                    *
******************************************************
 
:PWTMP   1.7982E+02  1.7270E+02  2.7024E+02
:PLANE:  PW TOTAL      2.2264 DISTAN   7.53E-01  3.38E+01 %
:CHARG:  CLM/ATOM    115.0029 DISTAN   3.69E-01  3.21E-01 %
 
Step History
        DMIX         DMIXT        Red     Pred      Trust     Lambda    MagRel    MagAbs     Beta
  1   3.5000E-02   3.5000E-02 -1.00E+00  1.00E+00 -1.00E+01  1.00E+00  3.50E-02  3.50E-02  1.00E+00
:INFO :  Note, Pratt in use
:TRUST:  Step 5.25E-02  Charge 7.50E-02 (e) CTO  2.50E-01 (e) PW  3.50E-01 (e)
:DIRM :  MEMORY  0/ 8 SCALE   1.000
Performing Pseudo Compensation
Final Pseudo Compensation Rescaling     1.00000E+00
:MIX  :   PRATT  REGULARIZATION:  1.00E-04 GREED: 0.03500                  
     
       CHARGES OF MIXED CHARGE DENSITY
:CTO   : INTERSTITIAL CHARGE =     3.446621
:CPC   : PW Pseudocharge     =     5.540941
:CTO001: CHARGE SPHERE  1    =    12.276690

:NEC03: NUCLEAR AND ELECTRONIC CHARGE     28.00000    28.00000

PW CHANGE     H    K    L      Current       Change    Residue
:PTO001:      0    0    0  3.32575168E-02 -2.850E-03 -4.136E-03
:PTO002:     -1   -1   -1 -6.19325463E-02  1.382E-02  9.964E-03
:PTO004:      0   -2   -2 -2.37407088E-02  2.365E-02  3.180E-02
:PTO005:     -1   -1   -3 -8.29562574E-03  2.897E-02  4.855E-02
:PTO006:     -2   -2   -2  3.82321485E-04  3.823E-04  1.092E-02
:PTO007:      0    0   -4  1.69638998E-03  7.617E-03  9.763E-03
:PTO008:     -1   -3   -3 -6.15934036E-03 -1.748E-02 -9.110E-03
:PTO010:     -2   -2   -4 -8.72065931E-03 -1.802E-02 -1.362E-02
:PTO011:     -3   -3   -3 -1.82079529E-03 -3.482E-03 -3.486E-03
:PTO012:     -1   -1   -5 -5.37850938E-03 -1.036E-02 -8.062E-03
:PTO013:      0   -4   -4 -2.69191470E-03 -5.029E-03 -2.895E-03
:PTO014:     -1   -3   -5 -5.99276593E-03 -1.127E-02 -7.474E-03

:ENE  : ********** TOTAL ENERGY IN Ry =        -1156.17603952

 Flat Integration
 New Mode for Coulomb Integral
 Consistent 3/8+Simpson combinations
 Extension of core to zero
 LDM version in phi
 Fifth-order quadrature in outwin


            ---------
:ITE002:  2. ITERATION
            ---------

:NATO :    1 INDEPENDENT AND    2 TOTAL ATOMS IN UNITCELL
       SUBSTANCE: blebleble                                                   

       LATTICE                      = F   
:POT  : POTENTIAL OPTION EX_LDA EC_LDA VX_LDA VC_LDA
:LAT  : LATTICE CONSTANTS= 10.26291 10.26291 10.26291    1.571    1.571    1.571
:VOL  : UNIT CELL VOLUME =     270.24152
       MODE OF CALCULATION IS       = RELA
       NON-SPINPOLARIZED CALCULATION
:IFFT  : FFT-parameters:   80   80   80 Factor: 2.00


   CONVERGENCE PARAMETER FOR PSEUDOCHARGE: NCON=  9
   MAXIMAL VALUE OF RMT(JATOM)*ABSK(NKK) : RK  =26.51350


:VKCOUL :  VK-COUL convergence: 0.754E-07
       ATOMNUMBER=  1 Si1        VCOUL-ZERO =  0.13720E+00
:FIT001: LUSE= 13 SIGMA OF V-XC FIT FOR ATOM  1  0.9146088E-03
:FIT001: LUSE= 13 SIGMA OF V-XC FIT FOR ATOM  1  0.9146088E-03
:DEN  : DENSITY INTEGRAL  =          -523.67159902   (Ry)
       ELS_POTENTIAL_AT Z=0 and Z=0.5:   0.43049   0.43049
       ELS_POTENTIAL_AT Y=0 and Y=0.5:   0.00000   0.00000
:VZERO:v0,v0c,v0x  -0.28291   0.43049  -0.71339 v5,v5c,v5x  -0.28291   0.43049  -0.71339
:VZERY:v0,v0c,v0x  -0.70021   0.00000  -0.70021 v5,v5c,v5x  -0.70021   0.00000  -0.70021
:VZERX:v0,v0c,v0x  -0.70021   0.00000  -0.70021 v5,v5c,v5x  -0.70021   0.00000  -0.70021
:LMAX-WF:   10   Non-Spherical LMAX:   4

          ATOMIC SPHERE DEPENDENT PARAMETERS FOR ATOM  Si1       
:e__0001: OVERALL ENERGY PARAMETER IS    0.1928
          OVERALL BASIS SET ON ATOM IS LAPW
:E0_0001: E( 0)=    0.1928
             APW+lo
:E1_0001: E( 1)=    0.1928
             APW+lo

       K=   0.00000   0.00000   0.00000            1
:RKM  : MATRIX SIZE   145LOs:   8  RKM= 6.63  WEIGHT= 1.00  PGR:    
       EIGENVALUES ARE:
:EIG00001:      -0.5283656    0.3404201    0.3404201    0.3404201    0.5448437
:EIG00006:       0.5448437    0.5448437    0.5780189    0.9314821    0.9314821
:EIG00011:       0.9405017    1.1945502    1.1945502    1.1945502    1.4974529
       ********************************************************

:KPT   :      NUMBER OF K-POINTS:    35
       Insulator, EF-inconsistency corrected
:GAP (global)   :  0.063338 Ry =     0.862 eV (accurate value if proper k-mesh)
         Bandranges (emin - emax) and occupancy:
:BAN00001:   1   -0.528366   -0.233000  2.00000000
:BAN00002:   2   -0.220214    0.340420  2.00000000
:BAN00003:   3    0.032034    0.340420  2.00000000
:BAN00004:   4    0.103037    0.340420  2.00000000
:BAN00005:   5    0.403758    0.637623  0.00000000
:BAN00006:   6    0.434339    0.779710  0.00000000
:BAN00007:   7    0.544844    1.031725  0.00000000
:BAN00008:   8    0.578019    1.045671  0.00000000
:BAN00009:   9    0.820436    1.208322  0.00000000
        Energy to separate low and high energystates: -999.00000


:NOE  : NUMBER OF ELECTRONS          =    8.000

:FER  : F E R M I - ENERGY(TETRAH.M.)=   0.3404200658
:GMA  : POTENTIAL AND CHARGE CUT-OFF  12.00 Ry**.5

:POS001: ATOM    1 X,Y,Z = 0.87500 0.37500 0.37500  MULT= 2  ZZ= 14.000  Si1       

       LMMAX  6
       LM=   0 0  4 0  4 4  6 0  6 4 -3 2

:CHA001: TOTAL VALENCE CHARGE INSIDE SPHERE   1 =   2.3881    (RMT=  2.2100 )
:PCS001: PARTIAL CHARGES SPHERE =  1 S,P,D,F,      D-EG,D-T2G 
:QTL001: 0.9633 1.3147 0.0995 0.0082 0.0000 0.0000 0.0000 0.0149 0.0846 0.0000 0.0000 0.0000
        Q-s-low E-s-low   Q-p-low E-p-low   Q-d-low E-d-low   Q-f-low E-f-low
:EPL001:  0.0000 10.0000    0.0000 10.0000    0.0000 10.0000    0.0000 10.0000
        Q-s-hi  E-s-hi    Q-p-hi  E-p-hi    Q-d-hi  E-d-hi    Q-f-hi  E-f-hi 
:EPH001:  0.9633 -0.2367    1.3147  0.1114    0.0995  0.0982    0.0082 -0.0221

:CHA  : TOTAL VALENCE CHARGE INSIDE UNIT CELL =       8.000000

:SUM  : SUM OF EIGENVALUES =          -0.193779766


        1.ATOM      Si1                   4 CORE STATES
:1S 001: 1S                -129.916062610 Ry
:2S 001: 2S                  -9.418437776 Ry
:2PP001: 2P*                 -6.279236286 Ry
:2P 001: 2P                  -6.231810466 Ry
:CINT001 Core Integral Atom   1    9.998657

       DENSITY AT NUCLEUS
        JATOM        VALENCE       SEMI-CORE          CORE           TOTAL
:RTO001:   1        7.822200        0.000000     1868.422376     1876.244576
     
       CHARGES OF NEW CHARGE DENSITY
:NTO   : INTERSTITIAL CHARGE =     3.223803
:NPC   : PW Pseudocharge     =     5.410396
:NTO001: CHARGE SPHERE  1    =    12.386755

:NEC01: NUCLEAR AND ELECTRONIC CHARGE     28.00000    27.99731
     
       CHARGES OF OLD CHARGE DENSITY
:OTO   : INTERSTITIAL CHARGE =     3.446621
:OPC   : PW Pseudocharge     =     5.540941
:OTO001: CHARGE SPHERE  1    =    12.276690

:NEC02: NUCLEAR AND ELECTRONIC CHARGE     28.00000    28.00000
     
       CONVERGENCE TEST
:DTO001: DIFFERENCE IN SPHERE  1 =  0.1414306

:DIS  :  CHARGE DISTANCE       ( 0.1414306 for atom    1 spin 1)      0.1414306
 PW Mixed is           49
 
******************************************************
* MULTISECANT MIXING VER9 RELEASE 10.4.0              *
* Standard Mode with controls                        *
* Fixed density scale                                *
* Regularization       1.000E-04                     *
* Trust Upper Limit    5.000E+00                     *
* Max Number of Memory Steps    8                    *
******************************************************
 
:PWTMP   1.7982E+02  1.7270E+02  2.7024E+02
:PLANE:  PW TOTAL      1.8889 DISTAN   3.10E-01  1.64E+01 %
:CHARG:  CLM/ATOM    115.0006 DISTAN   3.53E-01  3.07E-01 %
 
Step History
        DMIX         DMIXT        Red     Pred      Trust     Lambda    MagRel    MagAbs     Beta
  1   3.5000E-02   3.5000E-02 -1.00E+00  1.00E+00 -1.00E+01  1.00E+00  3.50E-02  3.50E-02  1.00E+00
  2   3.5000E-02   3.5000E-02 -1.00E+00  1.00E+00 -1.00E+01  1.00E+00  3.50E-02  2.93E-02  1.00E+00
:JACOBIANS    5.003E-01   2.881E-04
  
:TRUST:  Step 3.89E-02  Charge 7.50E-02 (e) CTO  2.50E-01 (e) PW  3.50E-01 (e)
:DIRM :  MEMORY  1/ 8 SCALE   1.000
:MIX  :   PRATT  REGULARIZATION:  1.00E-04 GREED: 0.03885  Expand 1.11  0.0389                
     
       CHARGES OF MIXED CHARGE DENSITY
:CTO   : INTERSTITIAL CHARGE =     3.445104
:CPC   : PW Pseudocharge     =     5.399576
:CTO001: CHARGE SPHERE  1    =    12.277448

:NEC03: NUCLEAR AND ELECTRONIC CHARGE     28.00000    28.00000

PW CHANGE     H    K    L      Current       Change    Residue
:PTO001:      0    0    0  3.27287962E-02 -5.287E-04 -1.281E-03
:PTO002:     -1   -1   -1 -5.93676429E-02  2.565E-03 -3.755E-03
:PTO004:      0   -2   -2 -1.93528264E-02  4.388E-03  8.204E-03
:PTO005:     -1   -1   -3 -2.92106822E-03  5.375E-03  1.953E-02
:PTO006:     -2   -2   -2  4.53259984E-04  7.094E-05  1.048E-02
:PTO007:      0    0   -4  3.10973825E-03  1.413E-03  2.130E-03
:PTO008:     -1   -3   -3 -9.40249455E-03 -3.243E-03  8.338E-03
:PTO010:     -2   -2   -4 -1.20648374E-02 -3.344E-03  4.414E-03
:PTO011:     -3   -3   -3 -2.46683658E-03 -6.460E-04  3.909E-06
:PTO012:     -1   -1   -5 -7.30107025E-03 -1.923E-03  2.310E-03
:PTO013:      0   -4   -4 -3.62496180E-03 -9.330E-04  2.131E-03
:PTO014:     -1   -3   -5 -8.08450482E-03 -2.092E-03  3.800E-03

:ENE  : ********** TOTAL ENERGY IN Ry =        -1156.17480920

 Flat Integration
 New Mode for Coulomb Integral
 Consistent 3/8+Simpson combinations
 Extension of core to zero
 LDM version in phi
 Fifth-order quadrature in outwin


            ---------
:ITE003:  3. ITERATION
            ---------

:NATO :    1 INDEPENDENT AND    2 TOTAL ATOMS IN UNITCELL
       SUBSTANCE: blebleble                                                   

       LATTICE                      = F   
:POT  : POTENTIAL OPTION EX_LDA EC_LDA VX_LDA VC_LDA
:LAT  : LATTICE CONSTANTS= 10.26291 10.26291 10.26291    1.571    1.571    1.571
:VOL  : UNIT CELL VOLUME =     270.24152
       MODE OF CALCULATION IS       = RELA
       NON-SPINPOLARIZED CALCULATION
:IFFT  : FFT-parameters:   80   80   80 Factor: 2.00


   CONVERGENCE PARAMETER FOR PSEUDOCHARGE: NCON=  9
   MAXIMAL VALUE OF RMT(JATOM)*ABSK(NKK) : RK  =26.51350


:VKCOUL :  VK-COUL convergence: 0.749E-07
       ATOMNUMBER=  1 Si1        VCOUL-ZERO =  0.13755E+00
:FIT001: LUSE= 13 SIGMA OF V-XC FIT FOR ATOM  1  0.9286691E-03
:FIT001: LUSE= 13 SIGMA OF V-XC FIT FOR ATOM  1  0.9286691E-03
:DEN  : DENSITY INTEGRAL  =          -523.68008398   (Ry)
       ELS_POTENTIAL_AT Z=0 and Z=0.5:   0.42965   0.42965
       ELS_POTENTIAL_AT Y=0 and Y=0.5:   0.00000   0.00000
:VZERO:v0,v0c,v0x  -0.28696   0.42965  -0.71662 v5,v5c,v5x  -0.28696   0.42965  -0.71662
:VZERY:v0,v0c,v0x  -0.69816   0.00000  -0.69816 v5,v5c,v5x  -0.69816   0.00000  -0.69816
:VZERX:v0,v0c,v0x  -0.69816   0.00000  -0.69816 v5,v5c,v5x  -0.69816   0.00000  -0.69816
:LMAX-WF:   10   Non-Spherical LMAX:   4

          ATOMIC SPHERE DEPENDENT PARAMETERS FOR ATOM  Si1       
:e__0001: OVERALL ENERGY PARAMETER IS    0.1579
          OVERALL BASIS SET ON ATOM IS LAPW
:E0_0001: E( 0)=    0.1579
             APW+lo
:E1_0001: E( 1)=    0.1579
             APW+lo

       K=   0.00000   0.00000   0.00000            1
:RKM  : MATRIX SIZE   145LOs:   8  RKM= 6.63  WEIGHT= 1.00  PGR:    
       EIGENVALUES ARE:
:EIG00001:      -0.5282585    0.3406725    0.3406725    0.3406725    0.5449462
:EIG00006:       0.5449462    0.5449462    0.5782752    0.9316646    0.9316646
:EIG00011:       0.9404163    1.1945376    1.1945376    1.1945376    1.4972715
       ********************************************************

:KPT   :      NUMBER OF K-POINTS:    35
       Insulator, EF-inconsistency corrected
:GAP (global)   :  0.063084 Ry =     0.858 eV (accurate value if proper k-mesh)
         Bandranges (emin - emax) and occupancy:
:BAN00001:   1   -0.528259   -0.232804  2.00000000
:BAN00002:   2   -0.220021    0.340672  2.00000000
:BAN00003:   3    0.032119    0.340672  2.00000000
:BAN00004:   4    0.103153    0.340672  2.00000000
:BAN00005:   5    0.403756    0.637711  0.00000000
:BAN00006:   6    0.434328    0.779819  0.00000000
:BAN00007:   7    0.544946    1.032000  0.00000000
:BAN00008:   8    0.578275    1.045936  0.00000000
:BAN00009:   9    0.820512    1.208585  0.00000000
        Energy to separate low and high energystates: -999.00000


:NOE  : NUMBER OF ELECTRONS          =    8.000

:FER  : F E R M I - ENERGY(TETRAH.M.)=   0.3406724620
:GMA  : POTENTIAL AND CHARGE CUT-OFF  12.00 Ry**.5

:POS001: ATOM    1 X,Y,Z = 0.87500 0.37500 0.37500  MULT= 2  ZZ= 14.000  Si1       

       LMMAX  6
       LM=   0 0  4 0  4 4  6 0  6 4 -3 2

:CHA001: TOTAL VALENCE CHARGE INSIDE SPHERE   1 =   2.3876    (RMT=  2.2100 )
:PCS001: PARTIAL CHARGES SPHERE =  1 S,P,D,F,      D-EG,D-T2G 
:QTL001: 0.9631 1.3145 0.0995 0.0082 0.0000 0.0000 0.0000 0.0149 0.0845 0.0000 0.0000 0.0000
        Q-s-low E-s-low   Q-p-low E-p-low   Q-d-low E-d-low   Q-f-low E-f-low
:EPL001:  0.0000 10.0000    0.0000 10.0000    0.0000 10.0000    0.0000 10.0000
        Q-s-hi  E-s-hi    Q-p-hi  E-p-hi    Q-d-hi  E-d-hi    Q-f-hi  E-f-hi 
:EPH001:  0.9631 -0.2365    1.3145  0.1115    0.0995  0.0983    0.0082 -0.0218

:CHA  : TOTAL VALENCE CHARGE INSIDE UNIT CELL =       8.000000

:SUM  : SUM OF EIGENVALUES =          -0.192410946


        1.ATOM      Si1                   4 CORE STATES
:1S 001: 1S                -129.915626012 Ry
:2S 001: 2S                  -9.418097700 Ry
:2PP001: 2P*                 -6.278884263 Ry
:2P 001: 2P                  -6.231458688 Ry
:CINT001 Core Integral Atom   1    9.998657

       DENSITY AT NUCLEUS
        JATOM        VALENCE       SEMI-CORE          CORE           TOTAL
:RTO001:   1        7.830803        0.000000     1868.422297     1876.253100
     
       CHARGES OF NEW CHARGE DENSITY
:NTO   : INTERSTITIAL CHARGE =     3.224771
:NPC   : PW Pseudocharge     =     5.409828
:NTO001: CHARGE SPHERE  1    =    12.386272

:NEC01: NUCLEAR AND ELECTRONIC CHARGE     28.00000    27.99731
     
       CHARGES OF OLD CHARGE DENSITY
:OTO   : INTERSTITIAL CHARGE =     3.445104
:OPC   : PW Pseudocharge     =     5.399576
:OTO001: CHARGE SPHERE  1    =    12.277448

:NEC02: NUCLEAR AND ELECTRONIC CHARGE     28.00000    28.00000
     
       CONVERGENCE TEST
:DTO001: DIFFERENCE IN SPHERE  1 =  0.1400697

:DIS  :  CHARGE DISTANCE       ( 0.1400697 for atom    1 spin 1)      0.1400697
 PW Mixed is           49
 
******************************************************
* MULTISECANT MIXING VER9 RELEASE 10.4.0              *
* Standard Mode with controls                        *
* Fixed density scale                                *
* Regularization       1.000E-04                     *
* Trust Upper Limit    5.000E+00                     *
* Max Number of Memory Steps    8                    *
******************************************************
 
:PWTMP   1.7982E+02  1.7270E+02  2.7024E+02
:PLANE:  PW TOTAL      1.8405 DISTAN   2.93E-01  1.59E+01 %
:CHARG:  CLM/ATOM    115.0001 DISTAN   3.50E-01  3.05E-01 %
 
Step History
        DMIX         DMIXT        Red     Pred      Trust     Lambda    MagRel    MagAbs     Beta
  1   3.5000E-02   3.5000E-02 -1.00E+00  1.00E+00 -1.00E+01  1.00E+00  3.50E-02  3.50E-02  1.00E+00
  2   3.5000E-02   3.5000E-02  5.60E-01  1.00E+00 -1.00E+01  1.00E+00  3.50E-02  2.93E-02  1.00E+00
  3   3.8851E-02   3.8851E-02 -1.00E+00  1.00E+00 -1.00E+01  1.00E+00  3.89E-02  1.83E-02  1.00E+00
:JACOBIANS    7.502E-01   4.362E-04
  
:NORMS:  1/Froebius, Min, Max, Used   0.1001E+01  0.5008E+00  0.1002E+01  0.1001E+01
:INFO :  Number of Memory Steps    2 Skipping    0
:INFO :  SLambda=    0.0314543928  Max    0.0314543928
:PREDicted Charge, CTotal, PW Trust    7.876E-04   1.575E-03   9.485E-02
:PREDicted DMix, Beta, BLim   5.2483E-02  9.7709E-01  4.0628E-01

Eigenvalues, unscaled except for SY+YY
   #     SY Real        SY Imag          SS             YY         SY+YY Real      SY+YY Imag
   1   2.001643E+00   0.000000E+00   2.003402E+00   1.999999E+00   2.062959E+00   0.000000E+00
   2  -8.215650E-15   0.000000E+00   0.000000E+00   1.481816E-06   1.481855E-06   0.000000E+00
 
:INFO :  Singular value  2.063E+00 Weight  1.000E+00 Projection  2.421E-05
:INFO :  Singular value  1.482E-06 Weight  5.489E-05 Projection -3.295E-03
:RANK :  ACTIVE   1.00/2  =  50.00 % ; YY RANK   1.00/2  =  50.00 %
 
:DLIM :  Beta Active  9.828E-01
:BLIM :  VZERO Control Off
:TRUST:  Step 3.20E-01  Charge 7.50E-02 (e) CTO  2.50E-01 (e) PW  3.50E-01 (e)
:DIRM :  MEMORY  2/8  SCALE   1.000 RED  0.97 PRED  1.00 NEXT  1.00 BETA  0.98
:TRAVE:  Charge 4.86E-03 (e) CTO  9.73E-03 (e) PW  5.77E-03 (e)
:DIRP :  |MSR1|= 1.311E-02 |PRATT|= 2.932E-01 ANGLE=   0.1 DEGREES
:DIRQ :  |MSR1|= 1.566E-02 |PRATT|= 3.502E-01 ANGLE=   0.0 DEGREES
:DIRT :  |MSR1|= 2.042E-02 |PRATT|= 4.568E-01 ANGLE=   0.1 DEGREES
:MIX  :   MSD1   REGULARIZATION:  2.00E-04 GREED: 0.04470  Newton 1.00  0.0447                
     
       CHARGES OF MIXED CHARGE DENSITY
:CTO   : INTERSTITIAL CHARGE =     3.435375
:CPC   : PW Pseudocharge     =     5.400278
:CTO001: CHARGE SPHERE  1    =    12.282313

:NEC03: NUCLEAR AND ELECTRONIC CHARGE     28.00000    28.00000

PW CHANGE     H    K    L      Current       Change    Residue
:PTO001:      0    0    0  3.26953924E-02 -3.340E-05 -7.508E-04
:PTO002:     -1   -1   -1 -5.96501685E-02 -2.825E-04 -6.303E-03
:PTO004:      0   -2   -2 -1.91832015E-02  1.696E-04  3.824E-03
:PTO005:     -1   -1   -3 -2.29018825E-03  6.309E-04  1.415E-02
:PTO006:     -2   -2   -2  9.18389339E-04  4.651E-04  1.041E-02
:PTO007:      0    0   -4  3.14124159E-03  3.150E-05  7.142E-04
:PTO008:     -1   -3   -3 -8.88392093E-03  5.186E-04  1.158E-02
:PTO010:     -2   -2   -4 -1.17169116E-02  3.479E-04  7.760E-03
:PTO011:     -3   -3   -3 -2.43754477E-03  2.929E-05  6.509E-04
:PTO012:     -1   -1   -5 -7.11118800E-03  1.899E-04  4.235E-03
:PTO013:      0   -4   -4 -3.48771603E-03  1.372E-04  3.064E-03
:PTO014:     -1   -3   -5 -7.82050355E-03  2.640E-04  5.892E-03

:ENE  : ********** TOTAL ENERGY IN Ry =        -1156.17459633

 Flat Integration
 New Mode for Coulomb Integral
 Consistent 3/8+Simpson combinations
 Extension of core to zero
 LDM version in phi
 Fifth-order quadrature in outwin


            ---------
:ITE004:  4. ITERATION
            ---------

:NATO :    1 INDEPENDENT AND    2 TOTAL ATOMS IN UNITCELL
       SUBSTANCE: blebleble                                                   

       LATTICE                      = F   
:POT  : POTENTIAL OPTION EX_LDA EC_LDA VX_LDA VC_LDA
:LAT  : LATTICE CONSTANTS= 10.26291 10.26291 10.26291    1.571    1.571    1.571
:VOL  : UNIT CELL VOLUME =     270.24152
       MODE OF CALCULATION IS       = RELA
       NON-SPINPOLARIZED CALCULATION
:IFFT  : FFT-parameters:   80   80   80 Factor: 2.00


   CONVERGENCE PARAMETER FOR PSEUDOCHARGE: NCON=  9
   MAXIMAL VALUE OF RMT(JATOM)*ABSK(NKK) : RK  =26.51350


:VKCOUL :  VK-COUL convergence: 0.750E-07
       ATOMNUMBER=  1 Si1        VCOUL-ZERO =  0.14001E+00
:FIT001: LUSE= 13 SIGMA OF V-XC FIT FOR ATOM  1  0.1022075E-02
:FIT001: LUSE= 13 SIGMA OF V-XC FIT FOR ATOM  1  0.1022075E-02
:DEN  : DENSITY INTEGRAL  =          -523.73958340   (Ry)
       ELS_POTENTIAL_AT Z=0 and Z=0.5:   0.42937   0.42937
       ELS_POTENTIAL_AT Y=0 and Y=0.5:   0.00000   0.00000
:VZERO:v0,v0c,v0x  -0.28646   0.42937  -0.71583 v5,v5c,v5x  -0.28646   0.42937  -0.71583
:VZERY:v0,v0c,v0x  -0.69749   0.00000  -0.69749 v5,v5c,v5x  -0.69749   0.00000  -0.69749
:VZERX:v0,v0c,v0x  -0.69749   0.00000  -0.69749 v5,v5c,v5x  -0.69749   0.00000  -0.69749
:LMAX-WF:   10   Non-Spherical LMAX:   4

          ATOMIC SPHERE DEPENDENT PARAMETERS FOR ATOM  Si1       
:e__0001: OVERALL ENERGY PARAMETER IS    0.1464
          OVERALL BASIS SET ON ATOM IS LAPW
:E0_0001: E( 0)=    0.1464
             APW+lo
:E1_0001: E( 1)=    0.1464
             APW+lo

       K=   0.00000   0.00000   0.00000            1
:RKM  : MATRIX SIZE   145LOs:   8  RKM= 6.63  WEIGHT= 1.00  PGR:    
       EIGENVALUES ARE:
:EIG00001:      -0.5270936    0.3424803    0.3424803    0.3424803    0.5457084
:EIG00006:       0.5457084    0.5457084    0.5799849    0.9324198    0.9324198
:EIG00011:       0.9398799    1.1941645    1.1941645    1.1941645    1.4959203
       ********************************************************

:KPT   :      NUMBER OF K-POINTS:    35
       Insulator, EF-inconsistency corrected
:GAP (global)   :  0.061413 Ry =     0.836 eV (accurate value if proper k-mesh)
         Bandranges (emin - emax) and occupancy:
:BAN00001:   1   -0.527094   -0.231309  2.00000000
:BAN00002:   2   -0.218552    0.342480  2.00000000
:BAN00003:   3    0.032839    0.342480  2.00000000
:BAN00004:   4    0.104074    0.342480  2.00000000
:BAN00005:   5    0.403893    0.638344  0.00000000
:BAN00006:   6    0.434394    0.780477  0.00000000
:BAN00007:   7    0.545708    1.033286  0.00000000
:BAN00008:   8    0.579985    1.047173  0.00000000
:BAN00009:   9    0.820903    1.209443  0.00000000
        Energy to separate low and high energystates: -999.00000


:NOE  : NUMBER OF ELECTRONS          =    8.000

:FER  : F E R M I - ENERGY(TETRAH.M.)=   0.3424802590
:GMA  : POTENTIAL AND CHARGE CUT-OFF  12.00 Ry**.5

:POS001: ATOM    1 X,Y,Z = 0.87500 0.37500 0.37500  MULT= 2  ZZ= 14.000  Si1       

       LMMAX  6
       LM=   0 0  4 0  4 4  6 0  6 4 -3 2

:CHA001: TOTAL VALENCE CHARGE INSIDE SPHERE   1 =   2.3848    (RMT=  2.2100 )
:PCS001: PARTIAL CHARGES SPHERE =  1 S,P,D,F,      D-EG,D-T2G 
:QTL001: 0.9623 1.3128 0.0992 0.0081 0.0000 0.0000 0.0000 0.0150 0.0842 0.0000 0.0000 0.0000
        Q-s-low E-s-low   Q-p-low E-p-low   Q-d-low E-d-low   Q-f-low E-f-low
:EPL001:  0.0000 10.0000    0.0000 10.0000    0.0000 10.0000    0.0000 10.0000
        Q-s-hi  E-s-hi    Q-p-hi  E-p-hi    Q-d-hi  E-d-hi    Q-f-hi  E-f-hi 
:EPH001:  0.9623 -0.2350    1.3128  0.1128    0.0992  0.0998    0.0081 -0.0196

:CHA  : TOTAL VALENCE CHARGE INSIDE UNIT CELL =       8.000000

:SUM  : SUM OF EIGENVALUES =          -0.181870471


        1.ATOM      Si1                   4 CORE STATES
:1S 001: 1S                -129.912619729 Ry
:2S 001: 2S                  -9.415746366 Ry
:2PP001: 2P*                 -6.276452840 Ry
:2P 001: 2P                  -6.229028951 Ry
:CINT001 Core Integral Atom   1    9.998656

       DENSITY AT NUCLEUS
        JATOM        VALENCE       SEMI-CORE          CORE           TOTAL
:RTO001:   1        7.823946        0.000000     1868.421571     1876.245517
     
       CHARGES OF NEW CHARGE DENSITY
:NTO   : INTERSTITIAL CHARGE =     3.230452
:NPC   : PW Pseudocharge     =     5.402933
:NTO001: CHARGE SPHERE  1    =    12.383430

:NEC01: NUCLEAR AND ELECTRONIC CHARGE     28.00000    27.99731
     
       CHARGES OF OLD CHARGE DENSITY
:OTO   : INTERSTITIAL CHARGE =     3.435375
:OPC   : PW Pseudocharge     =     5.400278
:OTO001: CHARGE SPHERE  1    =    12.282313

:NEC02: NUCLEAR AND ELECTRONIC CHARGE     28.00000    28.00000
     
       CONVERGENCE TEST
:DTO001: DIFFERENCE IN SPHERE  1 =  0.1330017

:DIS  :  CHARGE DISTANCE       ( 0.1330017 for atom    1 spin 1)      0.1330017
 PW Mixed is           49
 
******************************************************
* MULTISECANT MIXING VER9 RELEASE 10.4.0              *
* Standard Mode with controls                        *
* Fixed density scale                                *
* Regularization       1.000E-04                     *
* Trust Upper Limit    5.000E+00                     *
* Max Number of Memory Steps    8                    *
******************************************************
 
:PWTMP   1.7982E+02  1.7270E+02  2.7024E+02
:PLANE:  PW TOTAL      1.8407 DISTAN   2.78E-01  1.51E+01 %
:CHARG:  CLM/ATOM    114.9974 DISTAN   3.32E-01  2.89E-01 %
 
Step History
        DMIX         DMIXT        Red     Pred      Trust     Lambda    MagRel    MagAbs     Beta
  1   3.5000E-02   3.5000E-02 -1.00E+00  1.00E+00 -1.00E+01  1.00E+00  3.50E-02  3.50E-02  1.00E+00
  2   3.5000E-02   3.5000E-02  5.60E-01  1.00E+00 -1.00E+01  1.00E+00  3.50E-02  2.93E-02  1.00E+00
  3   3.8851E-02   3.8851E-02  9.72E-01  1.00E+00 -1.00E+01  3.15E-02  3.89E-02  1.83E-02  1.00E+00
  4   4.4704E-02   4.4704E-02 -1.00E+00  1.00E+00  3.20E-01  1.00E+00  4.47E-02  2.04E-02  9.83E-01
:JACOBIANS    1.049E+00   2.561E-01
  
:NORMS:  1/Froebius, Min, Max, Used   0.9611E+00  0.6182E+00  0.1007E+01  0.1007E+01
:INFO :  Number of Memory Steps    3 Skipping    0
:INFO :  SLambda=    1.0562455543  Max    1.0562455543
:PREDicted Charge, CTotal, PW Trust    9.890E-02   1.978E-01   1.419E-01
:PREDicted DMix, Beta, BLim   8.5837E-01  1.0139E+01  8.5556E-01

Eigenvalues, unscaled except for SY+YY
   #     SY Real        SY Imag          SS             YY         SY+YY Real      SY+YY Imag
   1   2.001576E+00   0.000000E+00   2.019349E+00   1.991324E+00   4.106409E+00   0.000000E+00
   2  -7.792378E-15   0.000000E+00   7.515902E-01   1.008674E+00   1.434344E-06   0.000000E+00
   3   8.626134E-01   0.000000E+00  -1.595946E-16   1.438276E-06   1.918878E+00   0.000000E+00
 
:INFO :  Singular value  4.108E+00 Weight  1.000E+00 Projection -5.418E-02
:INFO :  Singular value  1.918E+00 Weight  1.000E+00 Projection -4.240E-01
:INFO :  Singular value  1.434E-06 Weight  5.188E-05 Projection -1.664E-03
:RANK :  ACTIVE   2.00/3  =  66.67 % ; YY RANK   2.00/3  =  66.67 %
 
:BLIM :  VZERO Control Off
:TRUST:  Step 3.31E-01  Charge 8.25E-02 (e) CTO  2.50E-01 (e) PW  3.50E-01 (e)
:DTRUS:  Lambda    9.014E-01 Increment    7.276E-12 Iterations   104 DMIX    6.875E-02
:INFOA:  Angle SubSpace to MSR1      2.68
:DIRM :  MEMORY  3/8  SCALE   1.000 RED  0.95 PRED  1.00 NEXT  0.63 
:INFO :  Limited by Atoms F by Step T

:TRAVE:  Charge 1.81E-02 (e) CTO  3.62E-02 (e) PW  2.52E-02 (e)
:DIRP :  |MSR1|= 9.236E-02 |PRATT|= 2.785E-01 ANGLE=   2.7 DEGREES
:DIRQ :  |MSR1|= 1.099E-01 |PRATT|= 3.323E-01 ANGLE=   1.4 DEGREES
:DIRT :  |MSR1|= 1.436E-01 |PRATT|= 4.336E-01 ANGLE=   2.0 DEGREES
:MIX  :   MSE1   REGULARIZATION:  1.99E-04 GREED: 0.11176  LMStep 0.38  0.3311 Step           
     
       CHARGES OF MIXED CHARGE DENSITY
:CTO   : INTERSTITIAL CHARGE =     3.372796
:CPC   : PW Pseudocharge     =     5.392900
:CTO001: CHARGE SPHERE  1    =    12.313602

:NEC03: NUCLEAR AND ELECTRONIC CHARGE     28.00000    28.00000

PW CHANGE     H    K    L      Current       Change    Residue
:PTO001:      0    0    0  3.24365240E-02 -2.589E-04 -7.219E-04
:PTO002:     -1   -1   -1 -6.14188643E-02 -1.769E-03 -5.863E-03
:PTO004:      0   -2   -2 -1.77363455E-02  1.447E-03  3.747E-03
:PTO005:     -1   -1   -3  2.33012331E-03  4.620E-03  1.348E-02
:PTO006:     -2   -2   -2  4.17765493E-03  3.259E-03  9.868E-03
:PTO007:      0    0   -4  3.37839179E-03  2.372E-04  6.661E-04
:PTO008:     -1   -3   -3 -5.28423045E-03  3.600E-03  1.101E-02
:PTO010:     -2   -2   -4 -9.27193837E-03  2.445E-03  7.422E-03
:PTO011:     -3   -3   -3 -2.22497885E-03  2.126E-04  6.336E-04
:PTO012:     -1   -1   -5 -5.76757682E-03  1.344E-03  4.058E-03
:PTO013:      0   -4   -4 -2.52182547E-03  9.659E-04  2.925E-03
:PTO014:     -1   -3   -5 -5.95457993E-03  1.866E-03  5.635E-03

:ENE  : ********** TOTAL ENERGY IN Ry =        -1156.17296122

 Flat Integration
 New Mode for Coulomb Integral
 Consistent 3/8+Simpson combinations
 Extension of core to zero
 LDM version in phi
 Fifth-order quadrature in outwin


            ---------
:ITE005:  5. ITERATION
            ---------

:NATO :    1 INDEPENDENT AND    2 TOTAL ATOMS IN UNITCELL
       SUBSTANCE: blebleble                                                   

       LATTICE                      = F   
:POT  : POTENTIAL OPTION EX_LDA EC_LDA VX_LDA VC_LDA
:LAT  : LATTICE CONSTANTS= 10.26291 10.26291 10.26291    1.571    1.571    1.571
:VOL  : UNIT CELL VOLUME =     270.24152
       MODE OF CALCULATION IS       = RELA
       NON-SPINPOLARIZED CALCULATION
:IFFT  : FFT-parameters:   80   80   80 Factor: 2.00


   CONVERGENCE PARAMETER FOR PSEUDOCHARGE: NCON=  9
   MAXIMAL VALUE OF RMT(JATOM)*ABSK(NKK) : RK  =26.51350


:VKCOUL :  VK-COUL convergence: 0.757E-07
       ATOMNUMBER=  1 Si1        VCOUL-ZERO =  0.15686E+00
:FIT001: LUSE= 13 SIGMA OF V-XC FIT FOR ATOM  1  0.1722765E-02
:FIT001: LUSE= 13 SIGMA OF V-XC FIT FOR ATOM  1  0.1722765E-02
:DEN  : DENSITY INTEGRAL  =          -524.10386834   (Ry)
       ELS_POTENTIAL_AT Z=0 and Z=0.5:   0.42711   0.42711
       ELS_POTENTIAL_AT Y=0 and Y=0.5:   0.00000   0.00000
:VZERO:v0,v0c,v0x  -0.28256   0.42711  -0.70967 v5,v5c,v5x  -0.28256   0.42711  -0.70967
:VZERY:v0,v0c,v0x  -0.69253   0.00000  -0.69253 v5,v5c,v5x  -0.69253   0.00000  -0.69253
:VZERX:v0,v0c,v0x  -0.69253   0.00000  -0.69253 v5,v5c,v5x  -0.69253   0.00000  -0.69253
:LMAX-WF:   10   Non-Spherical LMAX:   4

          ATOMIC SPHERE DEPENDENT PARAMETERS FOR ATOM  Si1       
:e__0001: OVERALL ENERGY PARAMETER IS    0.1438
          OVERALL BASIS SET ON ATOM IS LAPW
:E0_0001: E( 0)=    0.1438
             APW+lo
:E1_0001: E( 1)=    0.1438
             APW+lo

       K=   0.00000   0.00000   0.00000            1
:RKM  : MATRIX SIZE   145LOs:   8  RKM= 6.63  WEIGHT= 1.00  PGR:    
       EIGENVALUES ARE:
:EIG00001:      -0.5191664    0.3547638    0.3547638    0.3547638    0.5507125
:EIG00006:       0.5507125    0.5507125    0.5911516    0.9366557    0.9372358
:EIG00011:       0.9372358    1.1915476    1.1915476    1.1915476    1.4872965
       ********************************************************

:KPT   :      NUMBER OF K-POINTS:    35
       Insulator, EF-inconsistency corrected
:GAP (global)   :  0.050083 Ry =     0.681 eV (accurate value if proper k-mesh)
         Bandranges (emin - emax) and occupancy:
:BAN00001:   1   -0.519166   -0.221238  2.00000000
:BAN00002:   2   -0.208667    0.354764  2.00000000
:BAN00003:   3    0.037674    0.354764  2.00000000
:BAN00004:   4    0.110238    0.354764  2.00000000
:BAN00005:   5    0.404846    0.642631  0.00000000
:BAN00006:   6    0.434856    0.785018  0.00000000
:BAN00007:   7    0.550712    1.041626  0.00000000
:BAN00008:   8    0.591152    1.055071  0.00000000
:BAN00009:   9    0.823490    1.214786  0.00000000
        Energy to separate low and high energystates: -999.00000


:NOE  : NUMBER OF ELECTRONS          =    8.000

:FER  : F E R M I - ENERGY(TETRAH.M.)=   0.3547638363
:GMA  : POTENTIAL AND CHARGE CUT-OFF  12.00 Ry**.5

:POS001: ATOM    1 X,Y,Z = 0.87500 0.37500 0.37500  MULT= 2  ZZ= 14.000  Si1       

       LMMAX  6
       LM=   0 0  4 0  4 4  6 0  6 4 -3 2

:CHA001: TOTAL VALENCE CHARGE INSIDE SPHERE   1 =   2.3657    (RMT=  2.2100 )
:PCS001: PARTIAL CHARGES SPHERE =  1 S,P,D,F,      D-EG,D-T2G 
:QTL001: 0.9566 1.3014 0.0975 0.0079 0.0000 0.0000 0.0000 0.0154 0.0821 0.0000 0.0000 0.0000
        Q-s-low E-s-low   Q-p-low E-p-low   Q-d-low E-d-low   Q-f-low E-f-low
:EPL001:  0.0000 10.0000    0.0000 10.0000    0.0000 10.0000    0.0000 10.0000
        Q-s-hi  E-s-hi    Q-p-hi  E-p-hi    Q-d-hi  E-d-hi    Q-f-hi  E-f-hi 
:EPH001:  0.9566 -0.2247    1.3014  0.1211    0.0975  0.1095    0.0079 -0.0050

:CHA  : TOTAL VALENCE CHARGE INSIDE UNIT CELL =       8.000000

:SUM  : SUM OF EIGENVALUES =          -0.110844828


        1.ATOM      Si1                   4 CORE STATES
:1S 001: 1S                -129.894858093 Ry
:2S 001: 2S                  -9.401690864 Ry
:2PP001: 2P*                 -6.261891123 Ry
:2P 001: 2P                  -6.214475253 Ry
:CINT001 Core Integral Atom   1    9.998655

       DENSITY AT NUCLEUS
        JATOM        VALENCE       SEMI-CORE          CORE           TOTAL
:RTO001:   1        7.760190        0.000000     1868.425638     1876.185828
     
       CHARGES OF NEW CHARGE DENSITY
:NTO   : INTERSTITIAL CHARGE =     3.268558
:NPC   : PW Pseudocharge     =     5.355878
:NTO001: CHARGE SPHERE  1    =    12.364375

:NEC01: NUCLEAR AND ELECTRONIC CHARGE     28.00000    27.99731
     
       CHARGES OF OLD CHARGE DENSITY
:OTO   : INTERSTITIAL CHARGE =     3.372796
:OPC   : PW Pseudocharge     =     5.392900
:OTO001: CHARGE SPHERE  1    =    12.313602

:NEC02: NUCLEAR AND ELECTRONIC CHARGE     28.00000    28.00000
     
       CONVERGENCE TEST
:DTO001: DIFFERENCE IN SPHERE  1 =  0.0848721

:DIS  :  CHARGE DISTANCE       ( 0.0848721 for atom    1 spin 1)      0.0848721
 PW Mixed is           49
 
******************************************************
* MULTISECANT MIXING VER9 RELEASE 10.4.0              *
* Standard Mode with controls                        *
* Fixed density scale                                *
* Regularization       1.000E-04                     *
* Trust Upper Limit    5.000E+00                     *
* Max Number of Memory Steps    8                    *
******************************************************
 
:PWTMP   1.7982E+02  1.7270E+02  2.7024E+02
:PLANE:  PW TOTAL      1.8415 DISTAN   1.75E-01  9.52E+00 %
:CHARG:  CLM/ATOM    114.9757 DISTAN   2.08E-01  1.81E-01 %
 
Step History
        DMIX         DMIXT        Red     Pred      Trust     Lambda    MagRel    MagAbs     Beta
  1   3.5000E-02   3.5000E-02 -1.00E+00  1.00E+00 -1.00E+01  1.00E+00  3.50E-02  3.50E-02  1.00E+00
  2   3.5000E-02   3.5000E-02  5.60E-01  1.00E+00 -1.00E+01  1.00E+00  3.50E-02  2.93E-02  1.00E+00
  3   3.8851E-02   3.8851E-02  9.72E-01  1.00E+00 -1.00E+01  3.15E-02  3.89E-02  1.83E-02  1.00E+00
  4   4.4704E-02   4.4704E-02  9.49E-01  1.00E+00  3.20E-01  1.06E+00  4.47E-02  2.04E-02  9.83E-01
  5   1.1176E-01   6.8748E-02 -1.00E+00  6.28E-01  3.31E-01  1.00E+00  3.31E-01  1.44E-01  1.00E+00
:JACOBIANS    1.202E+00   3.846E-01
  
:NORMS:  1/Froebius, Min, Max, Used   0.9239E+00  0.6537E+00  0.1000E+01  0.9293E+00
:INFO :  Number of Memory Steps    4 Skipping    0
:INFO :  SLambda=    1.0970706124  Max    1.0970706124
:PREDicted Charge, CTotal, PW Trust    8.345E-02   1.669E-01   1.313E-01
:PREDicted DMix, Beta, BLim   6.6228E-03  1.5049E+00  8.7922E-01

Eigenvalues, unscaled except for SY+YY
   #     SY Real        SY Imag          SS             YY         SY+YY Real      SY+YY Imag
   1   2.712330E+00   0.000000E+00   2.516469E+00   3.028732E+00   6.001781E+00   0.000000E+00
   2   9.400806E-01   0.000000E+00   8.980013E-01   9.712577E-01   2.005161E+00   0.000000E+00
   3  -1.431321E-15   0.000000E+00   7.391647E-06   1.033092E-05   3.461541E-07   0.000000E+00
   4   8.384878E-06   0.000000E+00   5.265665E-17   3.622329E-07   1.962759E-05   0.000000E+00
 
:INFO :  Singular value  6.003E+00 Weight  1.000E+00 Projection -1.459E-01
:INFO :  Singular value  2.005E+00 Weight  1.000E+00 Projection -8.359E-02
:INFO :  Singular value  1.966E-05 Weight  4.196E-03 Projection -6.995E-02
:INFO :  Singular value  3.456E-07 Weight  1.302E-06 Projection -2.689E-05
:RANK :  ACTIVE   2.00/4  =  50.10 % ; YY RANK   2.00/4  =  50.03 %
 
:BLIM :  VZERO Control Off
:TRUST:  Step 6.02E-01  Charge 8.34E-02 (e) CTO  2.50E-01 (e) PW  3.50E-01 (e)
:DTRUS:  Lambda    1.862E-01 Increment    7.276E-12 Iterations   103 DMIX    4.036E-02
:INFOA:  Angle SubSpace to MSR1      1.43
:DIRM :  MEMORY  4/8  SCALE   1.000 RED  0.63 PRED  0.63 NEXT  0.36 
:INFO :  Limited by Atoms F by Step T

:TRAVE:  Charge 2.63E-02 (e) CTO  5.25E-02 (e) PW  4.10E-02 (e)
:DIRP :  |MSR1|= 1.055E-01 |PRATT|= 1.753E-01 ANGLE=   4.6 DEGREES
:DIRQ :  |MSR1|= 1.252E-01 |PRATT|= 2.078E-01 ANGLE=   2.1 DEGREES
:DIRT :  |MSR1|= 1.637E-01 |PRATT|= 2.718E-01 ANGLE=   3.4 DEGREES
:MIX  :   MSE1   REGULARIZATION:  3.03E-04 GREED: 0.04470  LMStep 0.69  0.6024 Step           
     
       CHARGES OF MIXED CHARGE DENSITY
:CTO   : INTERSTITIAL CHARGE =     3.303896
:CPC   : PW Pseudocharge     =     5.373064
:CTO001: CHARGE SPHERE  1    =    12.348052

:NEC03: NUCLEAR AND ELECTRONIC CHARGE     28.00000    28.00000

PW CHANGE     H    K    L      Current       Change    Residue
:PTO001:      0    0    0  3.21081673E-02 -3.284E-04 -4.964E-04
:PTO002:     -1   -1   -1 -6.32271209E-02 -1.808E-03 -3.023E-03
:PTO004:      0   -2   -2 -1.57907882E-02  1.946E-03  2.914E-03
:PTO005:     -1   -1   -3  7.89943681E-03  5.569E-03  8.559E-03
:PTO006:     -2   -2   -2  7.88431606E-03  3.707E-03  6.103E-03
:PTO007:      0    0   -4  3.71617374E-03  3.378E-04  3.071E-04
:PTO008:     -1   -3   -3 -1.35020877E-03  3.934E-03  7.066E-03
:PTO010:     -2   -2   -4 -6.63650606E-03  2.635E-03  5.040E-03
:PTO011:     -3   -3   -3 -2.00838115E-03  2.166E-04  5.054E-04
:PTO012:     -1   -1   -5 -4.31877463E-03  1.449E-03  2.811E-03
:PTO013:      0   -4   -4 -1.46317217E-03  1.059E-03  1.945E-03
:PTO014:     -1   -3   -5 -3.91845769E-03  2.036E-03  3.821E-03

:ENE  : ********** TOTAL ENERGY IN Ry =        -1156.16427551

 Flat Integration
 New Mode for Coulomb Integral
 Consistent 3/8+Simpson combinations
 Extension of core to zero
 LDM version in phi
 Fifth-order quadrature in outwin


            ---------
:ITE006:  6. ITERATION
            ---------

:NATO :    1 INDEPENDENT AND    2 TOTAL ATOMS IN UNITCELL
       SUBSTANCE: blebleble                                                   

       LATTICE                      = F   
:POT  : POTENTIAL OPTION EX_LDA EC_LDA VX_LDA VC_LDA
:LAT  : LATTICE CONSTANTS= 10.26291 10.26291 10.26291    1.571    1.571    1.571
:VOL  : UNIT CELL VOLUME =     270.24152
       MODE OF CALCULATION IS       = RELA
       NON-SPINPOLARIZED CALCULATION
:IFFT  : FFT-parameters:   80   80   80 Factor: 2.00


   CONVERGENCE PARAMETER FOR PSEUDOCHARGE: NCON=  9
   MAXIMAL VALUE OF RMT(JATOM)*ABSK(NKK) : RK  =26.51350


:VKCOUL :  VK-COUL convergence: 0.764E-07
       ATOMNUMBER=  1 Si1        VCOUL-ZERO =  0.17587E+00
:FIT001: LUSE= 13 SIGMA OF V-XC FIT FOR ATOM  1  0.2581670E-02
:FIT001: LUSE= 13 SIGMA OF V-XC FIT FOR ATOM  1  0.2581670E-02
:DEN  : DENSITY INTEGRAL  =          -524.50371742   (Ry)
       ELS_POTENTIAL_AT Z=0 and Z=0.5:   0.42440   0.42440
       ELS_POTENTIAL_AT Y=0 and Y=0.5:   0.00000   0.00000
:VZERO:v0,v0c,v0x  -0.27703   0.42440  -0.70143 v5,v5c,v5x  -0.27703   0.42440  -0.70143
:VZERY:v0,v0c,v0x  -0.68604   0.00000  -0.68604 v5,v5c,v5x  -0.68604   0.00000  -0.68604
:VZERX:v0,v0c,v0x  -0.68604   0.00000  -0.68604 v5,v5c,v5x  -0.68604   0.00000  -0.68604
:LMAX-WF:   10   Non-Spherical LMAX:   4

          ATOMIC SPHERE DEPENDENT PARAMETERS FOR ATOM  Si1       
:e__0001: OVERALL ENERGY PARAMETER IS    0.1511
          OVERALL BASIS SET ON ATOM IS LAPW
:E0_0001: E( 0)=    0.1511
             APW+lo
:E1_0001: E( 1)=    0.1511
             APW+lo

       K=   0.00000   0.00000   0.00000            1
:RKM  : MATRIX SIZE   145LOs:   8  RKM= 6.63  WEIGHT= 1.00  PGR:    
       EIGENVALUES ARE:
:EIG00001:      -0.5099164    0.3690863    0.3690863    0.3690863    0.5565276
:EIG00006:       0.5565276    0.5565276    0.6037229    0.9344153    0.9427978
:EIG00011:       0.9427978    1.1891235    1.1891235    1.1891235    1.4793435
       ********************************************************

:KPT   :      NUMBER OF K-POINTS:    35
       Insulator, EF-inconsistency corrected
:GAP (global)   :  0.037335 Ry =     0.508 eV (accurate value if proper k-mesh)
         Bandranges (emin - emax) and occupancy:
:BAN00001:   1   -0.509916   -0.209591  2.00000000
:BAN00002:   2   -0.197237    0.369086  2.00000000
:BAN00003:   3    0.043417    0.369086  2.00000000
:BAN00004:   4    0.117429    0.369086  2.00000000
:BAN00005:   5    0.406422    0.647976  0.00000000
:BAN00006:   6    0.435848    0.790845  0.00000000
:BAN00007:   7    0.556528    1.051273  0.00000000
:BAN00008:   8    0.603723    1.064052  0.00000000
:BAN00009:   9    0.826800    1.220900  0.00000000
        Energy to separate low and high energystates: -999.00000


:NOE  : NUMBER OF ELECTRONS          =    8.000

:FER  : F E R M I - ENERGY(TETRAH.M.)=   0.3690863226
:GMA  : POTENTIAL AND CHARGE CUT-OFF  12.00 Ry**.5

:POS001: ATOM    1 X,Y,Z = 0.87500 0.37500 0.37500  MULT= 2  ZZ= 14.000  Si1       

       LMMAX  6
       LM=   0 0  4 0  4 4  6 0  6 4 -3 2

:CHA001: TOTAL VALENCE CHARGE INSIDE SPHERE   1 =   2.3441    (RMT=  2.2100 )
:PCS001: PARTIAL CHARGES SPHERE =  1 S,P,D,F,      D-EG,D-T2G 
:QTL001: 0.9505 1.2884 0.0956 0.0076 0.0000 0.0000 0.0000 0.0160 0.0796 0.0000 0.0000 0.0000
        Q-s-low E-s-low   Q-p-low E-p-low   Q-d-low E-d-low   Q-f-low E-f-low
:EPL001:  0.0000 10.0000    0.0000 10.0000    0.0000 10.0000    0.0000 10.0000
        Q-s-hi  E-s-hi    Q-p-hi  E-p-hi    Q-d-hi  E-d-hi    Q-f-hi  E-f-hi 
:EPH001:  0.9505 -0.2127    1.2884  0.1309    0.0956  0.1208    0.0076  0.0123

:CHA  : TOTAL VALENCE CHARGE INSIDE UNIT CELL =       8.000000

:SUM  : SUM OF EIGENVALUES =          -0.028380232


        1.ATOM      Si1                   4 CORE STATES
:1S 001: 1S                -129.876014669 Ry
:2S 001: 2S                  -9.386716291 Ry
:2PP001: 2P*                 -6.246359267 Ry
:2P 001: 2P                  -6.198950848 Ry
:CINT001 Core Integral Atom   1    9.998654

       DENSITY AT NUCLEUS
        JATOM        VALENCE       SEMI-CORE          CORE           TOTAL
:RTO001:   1        7.688708        0.000000     1868.434196     1876.122904
     
       CHARGES OF NEW CHARGE DENSITY
:NTO   : INTERSTITIAL CHARGE =     3.311728
:NPC   : PW Pseudocharge     =     5.302571
:NTO001: CHARGE SPHERE  1    =    12.342790

:NEC01: NUCLEAR AND ELECTRONIC CHARGE     28.00000    27.99731
     
       CHARGES OF OLD CHARGE DENSITY
:OTO   : INTERSTITIAL CHARGE =     3.303896
:OPC   : PW Pseudocharge     =     5.373064
:OTO001: CHARGE SPHERE  1    =    12.348052

:NEC02: NUCLEAR AND ELECTRONIC CHARGE     28.00000    28.00000
     
       CONVERGENCE TEST
:DTO001: DIFFERENCE IN SPHERE  1 =  0.0354443

:DIS  :  CHARGE DISTANCE       ( 0.0354443 for atom    1 spin 1)      0.0354443
 PW Mixed is           49
 
******************************************************
* MULTISECANT MIXING VER9 RELEASE 10.4.0              *
* Standard Mode with controls                        *
* Fixed density scale                                *
* Regularization       1.000E-04                     *
* Trust Upper Limit    5.000E+00                     *
* Max Number of Memory Steps    8                    *
******************************************************
 
:PWTMP   1.7982E+02  1.7270E+02  2.7024E+02
:PLANE:  PW TOTAL      1.8447 DISTAN   6.28E-02  3.40E+00 %
:CHARG:  CLM/ATOM    114.9504 DISTAN   7.12E-02  6.20E-02 %
 
Step History
        DMIX         DMIXT        Red     Pred      Trust     Lambda    MagRel    MagAbs     Beta
  1   3.5000E-02   3.5000E-02 -1.00E+00  1.00E+00 -1.00E+01  1.00E+00  3.50E-02  3.50E-02  1.00E+00
  2   3.5000E-02   3.5000E-02  5.60E-01  1.00E+00 -1.00E+01  1.00E+00  3.50E-02  2.93E-02  1.00E+00
  3   3.8851E-02   3.8851E-02  9.72E-01  1.00E+00 -1.00E+01  3.15E-02  3.89E-02  1.83E-02  1.00E+00
  4   4.4704E-02   4.4704E-02  9.49E-01  1.00E+00  3.20E-01  1.06E+00  4.47E-02  2.04E-02  9.83E-01
  5   1.1176E-01   6.8748E-02  6.27E-01  6.28E-01  3.31E-01  1.10E+00  3.31E-01  1.44E-01  1.00E+00
  6   4.4704E-02   4.0365E-02 -1.00E+00  3.56E-01  6.02E-01  1.00E+00  6.02E-01  1.64E-01  1.00E+00
:JACOBIANS    1.281E+00   4.511E-01
  
:NORMS:  1/Froebius, Min, Max, Used   0.9067E+00  0.5750E+00  0.1012E+01  0.9185E+00
:INFO :  Number of Memory Steps    5 Skipping    0
:INFO :  SLambda=    1.0513548813  Max    1.0513548813
:PREDicted Charge, CTotal, PW Trust    4.958E-02   9.916E-02   8.634E-02
:PREDicted DMix, Beta, BLim   3.3181E-02  1.4480E+00  8.7421E-01

Eigenvalues, unscaled except for SY+YY
   #     SY Real        SY Imag          SS             YY         SY+YY Real      SY+YY Imag
   1   3.762118E+00   0.000000E+00   3.413574E+00   4.275516E+00   8.230027E+00   0.000000E+00
   2   7.136835E-01   0.000000E+00   6.970410E-01   7.244328E-01   1.475578E+00   0.000000E+00
   3   3.781735E-05   0.000000E+00   3.097060E-05   5.101940E-05   9.029729E-05   0.000000E+00
   4   1.017127E-08   0.000000E+00   6.572065E-09   2.287698E-07   2.444966E-07   0.000000E+00
   5   2.283702E-16   0.000000E+00  -1.052473E-16   1.627788E-08   1.203904E-08   0.000000E+00
 
:INFO :  Singular value  8.231E+00 Weight  1.000E+00 Projection -4.002E-02
:INFO :  Singular value  1.475E+00 Weight  1.000E+00 Projection -1.273E-02
:INFO :  Singular value  9.032E-05 Weight  4.272E-02 Projection -2.996E-01
:INFO :  Singular value  2.447E-07 Weight  3.276E-07 Projection -1.673E-08
:INFO :  Singular value  1.203E-08 Weight  7.911E-10 Projection -6.495E-08
:RANK :  ACTIVE   2.04/5  =  40.85 % ; YY RANK   2.01/5  =  40.28 %
 
:BLIM :  VZERO Control Off
:TRUST:  Step 8.03E-01  Charge 8.34E-02 (e) CTO  2.50E-01 (e) PW  3.50E-01 (e)
:DIRM :  MEMORY  5/8  SCALE   1.000 RED  0.35 PRED  0.36 NEXT  0.51 
:TRAVE:  Charge 1.98E-02 (e) CTO  3.95E-02 (e) PW  3.55E-02 (e)
:DIRP :  |MSR1|= 4.812E-02 |PRATT|= 6.279E-02 ANGLE=  22.0 DEGREES
:DIRQ :  |MSR1|= 5.623E-02 |PRATT|= 7.124E-02 ANGLE=  20.4 DEGREES
:DIRT :  |MSR1|= 7.401E-02 |PRATT|= 9.496E-02 ANGLE=  21.1 DEGREES
:MIX  :   MSE1   REGULARIZATION:  4.28E-04 GREED: 0.04684  Newton 1.00  0.7793                
     
       CHARGES OF MIXED CHARGE DENSITY
:CTO   : INTERSTITIAL CHARGE =     3.277361
:CPC   : PW Pseudocharge     =     5.352688
:CTO001: CHARGE SPHERE  1    =    12.361320

:NEC03: NUCLEAR AND ELECTRONIC CHARGE     28.00000    28.00000

PW CHANGE     H    K    L      Current       Change    Residue
:PTO001:      0    0    0  3.19345765E-02 -1.736E-04 -2.060E-04
:PTO002:     -1   -1   -1 -6.38341043E-02 -6.070E-04  3.610E-06
:PTO004:      0   -2   -2 -1.46659929E-02  1.125E-03  1.646E-03
:PTO005:     -1   -1   -3  1.06019580E-02  2.703E-03  2.593E-03
:PTO006:     -2   -2   -2  9.53458643E-03  1.650E-03  1.802E-03
:PTO007:      0    0   -4  3.89646773E-03  1.803E-04 -1.828E-04
:PTO008:     -1   -3   -3  3.30962951E-04  1.681E-03  2.730E-03
:PTO010:     -2   -2   -4 -5.50149400E-03  1.135E-03  2.477E-03
:PTO011:     -3   -3   -3 -1.91457841E-03  9.380E-05  3.848E-04
:PTO012:     -1   -1   -5 -3.68780198E-03  6.310E-04  1.477E-03
:PTO013:      0   -4   -4 -1.00090308E-03  4.623E-04  8.687E-04
:PTO014:     -1   -3   -5 -3.02668247E-03  8.918E-04  1.840E-03

:ENE  : ********** TOTAL ENERGY IN Ry =        -1156.16006534

 Flat Integration
 New Mode for Coulomb Integral
 Consistent 3/8+Simpson combinations
 Extension of core to zero
 LDM version in phi
 Fifth-order quadrature in outwin


            ---------
:ITE007:  7. ITERATION
            ---------

:NATO :    1 INDEPENDENT AND    2 TOTAL ATOMS IN UNITCELL
       SUBSTANCE: blebleble                                                   

       LATTICE                      = F   
:POT  : POTENTIAL OPTION EX_LDA EC_LDA VX_LDA VC_LDA
:LAT  : LATTICE CONSTANTS= 10.26291 10.26291 10.26291    1.571    1.571    1.571
:VOL  : UNIT CELL VOLUME =     270.24152
       MODE OF CALCULATION IS       = RELA
       NON-SPINPOLARIZED CALCULATION
:IFFT  : FFT-parameters:   80   80   80 Factor: 2.00


   CONVERGENCE PARAMETER FOR PSEUDOCHARGE: NCON=  9
   MAXIMAL VALUE OF RMT(JATOM)*ABSK(NKK) : RK  =26.51350


:VKCOUL :  VK-COUL convergence: 0.767E-07
       ATOMNUMBER=  1 Si1        VCOUL-ZERO =  0.18406E+00
:FIT001: LUSE= 13 SIGMA OF V-XC FIT FOR ATOM  1  0.2963632E-02
:FIT001: LUSE= 13 SIGMA OF V-XC FIT FOR ATOM  1  0.2963632E-02
:DEN  : DENSITY INTEGRAL  =          -524.64160377   (Ry)
       ELS_POTENTIAL_AT Z=0 and Z=0.5:   0.42296   0.42296
       ELS_POTENTIAL_AT Y=0 and Y=0.5:   0.00000   0.00000
:VZERO:v0,v0c,v0x  -0.27438   0.42296  -0.69734 v5,v5c,v5x  -0.27438   0.42296  -0.69734
:VZERY:v0,v0c,v0x  -0.68285   0.00000  -0.68285 v5,v5c,v5x  -0.68285   0.00000  -0.68285
:VZERX:v0,v0c,v0x  -0.68285   0.00000  -0.68285 v5,v5c,v5x  -0.68285   0.00000  -0.68285
:LMAX-WF:   10   Non-Spherical LMAX:   4

          ATOMIC SPHERE DEPENDENT PARAMETERS FOR ATOM  Si1       
:e__0001: OVERALL ENERGY PARAMETER IS    0.1631
          OVERALL BASIS SET ON ATOM IS LAPW
:E0_0001: E( 0)=    0.1631
             APW+lo
:E1_0001: E( 1)=    0.1631
             APW+lo

       K=   0.00000   0.00000   0.00000            1
:RKM  : MATRIX SIZE   145LOs:   8  RKM= 6.63  WEIGHT= 1.00  PGR:    
       EIGENVALUES ARE:
:EIG00001:      -0.5060650    0.3750934    0.3750934    0.3750934    0.5588771
:EIG00006:       0.5588771    0.5588771    0.6087478    0.9339194    0.9450394
:EIG00011:       0.9450394    1.1881976    1.1881976    1.1881976    1.4766685
       ********************************************************

:KPT   :      NUMBER OF K-POINTS:    35
       Insulator, EF-inconsistency corrected
:GAP (global)   :  0.032073 Ry =     0.436 eV (accurate value if proper k-mesh)
         Bandranges (emin - emax) and occupancy:
:BAN00001:   1   -0.506065   -0.204770  2.00000000
:BAN00002:   2   -0.192507    0.375093  2.00000000
:BAN00003:   3    0.045816    0.375093  2.00000000
:BAN00004:   4    0.120408    0.375093  2.00000000
:BAN00005:   5    0.407167    0.650276  0.00000000
:BAN00006:   6    0.436345    0.793423  0.00000000
:BAN00007:   7    0.558877    1.055209  0.00000000
:BAN00008:   8    0.608748    1.067637  0.00000000
:BAN00009:   9    0.828221    1.223343  0.00000000
        Energy to separate low and high energystates: -999.00000


:NOE  : NUMBER OF ELECTRONS          =    8.000

:FER  : F E R M I - ENERGY(TETRAH.M.)=   0.3750934213
:GMA  : POTENTIAL AND CHARGE CUT-OFF  12.00 Ry**.5

:POS001: ATOM    1 X,Y,Z = 0.87500 0.37500 0.37500  MULT= 2  ZZ= 14.000  Si1       

       LMMAX  6
       LM=   0 0  4 0  4 4  6 0  6 4 -3 2

:CHA001: TOTAL VALENCE CHARGE INSIDE SPHERE   1 =   2.3352    (RMT=  2.2100 )
:PCS001: PARTIAL CHARGES SPHERE =  1 S,P,D,F,      D-EG,D-T2G 
:QTL001: 0.9480 1.2829 0.0948 0.0075 0.0000 0.0000 0.0000 0.0162 0.0786 0.0000 0.0000 0.0000
        Q-s-low E-s-low   Q-p-low E-p-low   Q-d-low E-d-low   Q-f-low E-f-low
:EPL001:  0.0000 10.0000    0.0000 10.0000    0.0000 10.0000    0.0000 10.0000
        Q-s-hi  E-s-hi    Q-p-hi  E-p-hi    Q-d-hi  E-d-hi    Q-f-hi  E-f-hi 
:EPH001:  0.9480 -0.2077    1.2829  0.1349    0.0948  0.1254    0.0075  0.0197

:CHA  : TOTAL VALENCE CHARGE INSIDE UNIT CELL =       8.000000

:SUM  : SUM OF EIGENVALUES =           0.005836527


        1.ATOM      Si1                   4 CORE STATES
:1S 001: 1S                -129.870062122 Ry
:2S 001: 2S                  -9.381887573 Ry
:2PP001: 2P*                 -6.241317395 Ry
:2P 001: 2P                  -6.193909628 Ry
:CINT001 Core Integral Atom   1    9.998655

       DENSITY AT NUCLEUS
        JATOM        VALENCE       SEMI-CORE          CORE           TOTAL
:RTO001:   1        7.658804        0.000000     1868.444540     1876.103344
     
       CHARGES OF NEW CHARGE DENSITY
:NTO   : INTERSTITIAL CHARGE =     3.329502
:NPC   : PW Pseudocharge     =     5.280410
:NTO001: CHARGE SPHERE  1    =    12.333904

:NEC01: NUCLEAR AND ELECTRONIC CHARGE     28.00000    27.99731
     
       CHARGES OF OLD CHARGE DENSITY
:OTO   : INTERSTITIAL CHARGE =     3.277361
:OPC   : PW Pseudocharge     =     5.352688
:OTO001: CHARGE SPHERE  1    =    12.361320

:NEC02: NUCLEAR AND ELECTRONIC CHARGE     28.00000    28.00000
     
       CONVERGENCE TEST
:DTO001: DIFFERENCE IN SPHERE  1 =  0.0231989

:DIS  :  CHARGE DISTANCE       ( 0.0231989 for atom    1 spin 1)      0.0231989
 PW Mixed is           49
 
******************************************************
* MULTISECANT MIXING VER9 RELEASE 10.4.0              *
* Standard Mode with controls                        *
* Fixed density scale                                *
* Regularization       1.000E-04                     *
* Trust Upper Limit    5.000E+00                     *
* Max Number of Memory Steps    8                    *
******************************************************
 
:PWTMP   1.7982E+02  1.7270E+02  2.7024E+02
:PLANE:  PW TOTAL      1.8449 DISTAN   3.13E-02  1.70E+00 %
:CHARG:  CLM/ATOM    114.9375 DISTAN   3.32E-02  2.89E-02 %
 
Step History
        DMIX         DMIXT        Red     Pred      Trust     Lambda    MagRel    MagAbs     Beta
  1   3.5000E-02   3.5000E-02 -1.00E+00  1.00E+00 -1.00E+01  1.00E+00  3.50E-02  3.50E-02  1.00E+00
  2   3.5000E-02   3.5000E-02  5.60E-01  1.00E+00 -1.00E+01  1.00E+00  3.50E-02  2.93E-02  1.00E+00
  3   3.8851E-02   3.8851E-02  9.72E-01  1.00E+00 -1.00E+01  3.15E-02  3.89E-02  1.83E-02  1.00E+00
  4   4.4704E-02   4.4704E-02  9.49E-01  1.00E+00  3.20E-01  1.06E+00  4.47E-02  2.04E-02  9.83E-01
  5   1.1176E-01   6.8748E-02  6.27E-01  6.28E-01  3.31E-01  1.10E+00  3.31E-01  1.44E-01  1.00E+00
  6   4.4704E-02   4.0365E-02  3.49E-01  3.56E-01  6.02E-01  1.05E+00  6.02E-01  1.64E-01  1.00E+00
  7   4.6838E-02   4.6838E-02 -1.00E+00  5.15E-01  8.03E-01  1.00E+00  7.79E-01  7.40E-02  1.00E+00
:JACOBIANS    1.462E+00   6.819E-01
  
:NORMS:  1/Froebius, Min, Max, Used   0.9046E+00  0.5305E+00  0.1101E+01  0.9148E+00
:INFO :  Number of Memory Steps    6 Skipping    0
:INFO :  SLambda=    0.3832144966  Max    0.3832144966
:PREDicted Charge, CTotal, PW Trust    5.898E-03   1.180E-02   3.239E-02
:PREDicted DMix, Beta, BLim   5.7200E-01  1.1060E+00  9.1550E-01

Eigenvalues, unscaled except for SY+YY
   #     SY Real        SY Imag          SS             YY         SY+YY Real      SY+YY Imag
   1   4.735089E+00   0.000000E+00   4.296210E+00   5.367420E+00   7.181715E+00   0.000000E+00
   2   6.235440E-01   0.000000E+00   6.126242E-01   6.303167E-01   8.695216E-01   0.000000E+00
   3   1.608517E-03   0.000000E+00   1.192921E-03   2.262354E-03   2.885151E-03   0.000000E+00
   4   8.266356E-08   0.000000E+00   1.817509E-08   6.640222E-07   6.872284E-07   0.000000E+00
   5   9.268274E-09   0.000000E+00   6.111288E-10   1.266449E-07   1.695753E-09   0.000000E+00
   6   8.585608E-17   0.000000E+00  -1.352099E-16   1.478912E-09   1.308945E-07   0.000000E+00
 
:INFO :  Singular value  7.182E+00 Weight  1.000E+00 Projection  7.418E-05
:INFO :  Singular value  8.695E-01 Weight  1.000E+00 Projection  8.160E-04
:INFO :  Singular value  2.885E-03 Weight  9.665E-01 Projection -9.032E-01
:INFO :  Singular value  6.874E-07 Weight  1.640E-06 Projection -1.629E-05
:INFO :  Singular value  1.309E-07 Weight  5.947E-08 Projection -1.254E-06
:INFO :  Singular value  1.695E-09 Weight  9.977E-12 Projection -1.260E-09
:RANK :  ACTIVE   2.97/6  =  49.44 % ; YY RANK   2.95/6  =  49.11 %
 
:BLIM :  VZERO Control Off
:TRUST:  Step 1.07E+00  Charge 7.88E-02 (e) CTO  2.00E-01 (e) PW  2.80E-01 (e)
:DIRM :  MEMORY  6/8  SCALE   1.000 RED  0.48 PRED  0.51 NEXT  0.28 
:TRAVE:  Charge 1.92E-02 (e) CTO  3.84E-02 (e) PW  1.92E-02 (e)
:DIRP :  |MSR1|= 2.292E-02 |PRATT|= 3.130E-02 ANGLE=  13.0 DEGREES
:DIRQ :  |MSR1|= 2.343E-02 |PRATT|= 3.317E-02 ANGLE=   5.5 DEGREES
:DIRT :  |MSR1|= 3.278E-02 |PRATT|= 4.560E-02 ANGLE=   9.9 DEGREES
:MIX  :   MSD1   REGULARIZATION:  5.37E-04 GREED: 0.11710  Newton 1.00  0.7187                
     
       CHARGES OF MIXED CHARGE DENSITY
:CTO   : INTERSTITIAL CHARGE =     3.314684
:CPC   : PW Pseudocharge     =     5.310706
:CTO001: CHARGE SPHERE  1    =    12.342658

:NEC03: NUCLEAR AND ELECTRONIC CHARGE     28.00000    28.00000

PW CHANGE     H    K    L      Current       Change    Residue
:PTO001:      0    0    0  3.19173363E-02 -1.724E-05 -4.877E-05
:PTO002:     -1   -1   -1 -6.31957763E-02  6.383E-04  1.117E-03
:PTO004:      0   -2   -2 -1.42654619E-02  4.005E-04  7.949E-04
:PTO005:     -1   -1   -3  1.02519760E-02 -3.500E-04 -3.008E-04
:PTO006:     -2   -2   -2  9.52491838E-03 -9.668E-06 -1.060E-04
:PTO007:      0    0   -4  3.53449010E-03 -3.620E-04 -4.325E-04
:PTO008:     -1   -3   -3  1.16603858E-03  8.351E-04  8.777E-04
:PTO010:     -2   -2   -4 -4.33665366E-03  1.165E-03  1.373E-03
:PTO011:     -3   -3   -3 -1.64834697E-03  2.662E-04  3.316E-04
:PTO012:     -1   -1   -5 -2.94416914E-03  7.436E-04  8.958E-04
:PTO013:      0   -4   -4 -6.59327918E-04  3.416E-04  3.983E-04
:PTO014:     -1   -3   -5 -2.21245213E-03  8.142E-04  9.707E-04

:ENE  : ********** TOTAL ENERGY IN Ry =        -1156.16011263

 Flat Integration
 New Mode for Coulomb Integral
 Consistent 3/8+Simpson combinations
 Extension of core to zero
 LDM version in phi
 Fifth-order quadrature in outwin


            ---------
:ITE008:  8. ITERATION
            ---------

:NATO :    1 INDEPENDENT AND    2 TOTAL ATOMS IN UNITCELL
       SUBSTANCE: blebleble                                                   

       LATTICE                      = F   
:POT  : POTENTIAL OPTION EX_LDA EC_LDA VX_LDA VC_LDA
:LAT  : LATTICE CONSTANTS= 10.26291 10.26291 10.26291    1.571    1.571    1.571
:VOL  : UNIT CELL VOLUME =     270.24152
       MODE OF CALCULATION IS       = RELA
       NON-SPINPOLARIZED CALCULATION
:IFFT  : FFT-parameters:   80   80   80 Factor: 2.00


   CONVERGENCE PARAMETER FOR PSEUDOCHARGE: NCON=  9
   MAXIMAL VALUE OF RMT(JATOM)*ABSK(NKK) : RK  =26.51350


:VKCOUL :  VK-COUL convergence: 0.766E-07
       ATOMNUMBER=  1 Si1        VCOUL-ZERO =  0.18156E+00
:FIT001: LUSE= 13 SIGMA OF V-XC FIT FOR ATOM  1  0.2872383E-02
:FIT001: LUSE= 13 SIGMA OF V-XC FIT FOR ATOM  1  0.2872383E-02
:DEN  : DENSITY INTEGRAL  =          -524.25896359   (Ry)
       ELS_POTENTIAL_AT Z=0 and Z=0.5:   0.42123   0.42123
       ELS_POTENTIAL_AT Y=0 and Y=0.5:   0.00000   0.00000
:VZERO:v0,v0c,v0x  -0.27521   0.42123  -0.69645 v5,v5c,v5x  -0.27521   0.42123  -0.69645
:VZERY:v0,v0c,v0x  -0.68375   0.00000  -0.68375 v5,v5c,v5x  -0.68375   0.00000  -0.68375
:VZERX:v0,v0c,v0x  -0.68375   0.00000  -0.68375 v5,v5c,v5x  -0.68375   0.00000  -0.68375
:LMAX-WF:   10   Non-Spherical LMAX:   4

          ATOMIC SPHERE DEPENDENT PARAMETERS FOR ATOM  Si1       
:e__0001: OVERALL ENERGY PARAMETER IS    0.1711
          OVERALL BASIS SET ON ATOM IS LAPW
:E0_0001: E( 0)=    0.1711
             APW+lo
:E1_0001: E( 1)=    0.1711
             APW+lo

       K=   0.00000   0.00000   0.00000            1
:RKM  : MATRIX SIZE   145LOs:   8  RKM= 6.63  WEIGHT= 1.00  PGR:    
       EIGENVALUES ARE:
:EIG00001:      -0.5099577    0.3699666    0.3699666    0.3699666    0.5556637
:EIG00006:       0.5556637    0.5556637    0.6027965    0.9332818    0.9422316
:EIG00011:       0.9422316    1.1874109    1.1874109    1.1874109    1.4778728
       ********************************************************

:KPT   :      NUMBER OF K-POINTS:    35
       Insulator, EF-inconsistency corrected
:GAP (global)   :  0.035368 Ry =     0.481 eV (accurate value if proper k-mesh)
         Bandranges (emin - emax) and occupancy:
:BAN00001:   1   -0.509958   -0.209423  2.00000000
:BAN00002:   2   -0.197092    0.369967  2.00000000
:BAN00003:   3    0.042991    0.369967  2.00000000
:BAN00004:   4    0.117186    0.369967  2.00000000
:BAN00005:   5    0.405334    0.647413  0.00000000
:BAN00006:   6    0.434700    0.790620  0.00000000
:BAN00007:   7    0.555664    1.050754  0.00000000
:BAN00008:   8    0.602797    1.063076  0.00000000
:BAN00009:   9    0.826146    1.220327  0.00000000
        Energy to separate low and high energystates: -999.00000


:NOE  : NUMBER OF ELECTRONS          =    8.000

:FER  : F E R M I - ENERGY(TETRAH.M.)=   0.3699666395
:GMA  : POTENTIAL AND CHARGE CUT-OFF  12.00 Ry**.5

:POS001: ATOM    1 X,Y,Z = 0.87500 0.37500 0.37500  MULT= 2  ZZ= 14.000  Si1       

       LMMAX  6
       LM=   0 0  4 0  4 4  6 0  6 4 -3 2

:CHA001: TOTAL VALENCE CHARGE INSIDE SPHERE   1 =   2.3420    (RMT=  2.2100 )
:PCS001: PARTIAL CHARGES SPHERE =  1 S,P,D,F,      D-EG,D-T2G 
:QTL001: 0.9506 1.2868 0.0951 0.0075 0.0000 0.0000 0.0000 0.0160 0.0790 0.0000 0.0000 0.0000
        Q-s-low E-s-low   Q-p-low E-p-low   Q-d-low E-d-low   Q-f-low E-f-low
:EPL001:  0.0000 10.0000    0.0000 10.0000    0.0000 10.0000    0.0000 10.0000
        Q-s-hi  E-s-hi    Q-p-hi  E-p-hi    Q-d-hi  E-d-hi    Q-f-hi  E-f-hi 
:EPH001:  0.9506 -0.2124    1.2868  0.1310    0.0951  0.1210    0.0075  0.0140

:CHA  : TOTAL VALENCE CHARGE INSIDE UNIT CELL =       8.000000

:SUM  : SUM OF EIGENVALUES =          -0.027620291


        1.ATOM      Si1                   4 CORE STATES
:1S 001: 1S                -129.891252993 Ry
:2S 001: 2S                  -9.398196883 Ry
:2PP001: 2P*                 -6.257908238 Ry
:2P 001: 2P                  -6.210478795 Ry
:CINT001 Core Integral Atom   1    9.998665

       DENSITY AT NUCLEUS
        JATOM        VALENCE       SEMI-CORE          CORE           TOTAL
:RTO001:   1        7.688481        0.000000     1868.498483     1876.186964
     
       CHARGES OF NEW CHARGE DENSITY
:NTO   : INTERSTITIAL CHARGE =     3.315934
:NPC   : PW Pseudocharge     =     5.295412
:NTO001: CHARGE SPHERE  1    =    12.340698

:NEC01: NUCLEAR AND ELECTRONIC CHARGE     28.00000    27.99733
     
       CHARGES OF OLD CHARGE DENSITY
:OTO   : INTERSTITIAL CHARGE =     3.314684
:OPC   : PW Pseudocharge     =     5.310706
:OTO001: CHARGE SPHERE  1    =    12.342658

:NEC02: NUCLEAR AND ELECTRONIC CHARGE     28.00000    28.00000
     
       CONVERGENCE TEST
:DTO001: DIFFERENCE IN SPHERE  1 =  0.0065703

:DIS  :  CHARGE DISTANCE       ( 0.0065703 for atom    1 spin 1)      0.0065703
 PW Mixed is           49
 
******************************************************
* MULTISECANT MIXING VER9 RELEASE 10.4.0              *
* Standard Mode with controls                        *
* Fixed density scale                                *
* Regularization       1.000E-04                     *
* Trust Upper Limit    5.000E+00                     *
* Max Number of Memory Steps    8                    *
******************************************************
 
:PWTMP   1.7982E+02  1.7270E+02  2.7024E+02
:PLANE:  PW TOTAL      1.8367 DISTAN   4.61E-03  2.51E-01 %
:CHARG:  CLM/ATOM    114.9236 DISTAN   9.36E-03  8.15E-03 %
 
Step History
        DMIX         DMIXT        Red     Pred      Trust     Lambda    MagRel    MagAbs     Beta
  1   3.5000E-02   3.5000E-02 -1.00E+00  1.00E+00 -1.00E+01  1.00E+00  3.50E-02  3.50E-02  1.00E+00
  2   3.5000E-02   3.5000E-02  5.60E-01  1.00E+00 -1.00E+01  1.00E+00  3.50E-02  2.93E-02  1.00E+00
  3   3.8851E-02   3.8851E-02  9.72E-01  1.00E+00 -1.00E+01  3.15E-02  3.89E-02  1.83E-02  1.00E+00
  4   4.4704E-02   4.4704E-02  9.49E-01  1.00E+00  3.20E-01  1.06E+00  4.47E-02  2.04E-02  9.83E-01
  5   1.1176E-01   6.8748E-02  6.27E-01  6.28E-01  3.31E-01  1.10E+00  3.31E-01  1.44E-01  1.00E+00
  6   4.4704E-02   4.0365E-02  3.49E-01  3.56E-01  6.02E-01  1.05E+00  6.02E-01  1.64E-01  1.00E+00
  7   4.6838E-02   4.6838E-02  4.80E-01  5.15E-01  8.03E-01  3.83E-01  7.79E-01  7.40E-02  1.00E+00
  8   1.1710E-01   1.1710E-01 -1.00E+00  2.82E-01  1.07E+00  1.00E+00  7.19E-01  3.28E-02  1.00E+00
:JACOBIANS    1.568E+00   8.019E-01
  
:NORMS:  1/Froebius, Min, Max, Used   0.9052E+00  0.5166E+00  0.9960E+00  0.9323E+00
:INFO :  Number of Memory Steps    7 Skipping    0
:INFO :  SLambda=    0.8768522838  Max    0.8768522838
:PREDicted Charge, CTotal, PW Trust    1.873E-02   3.746E-02   4.764E-03
:PREDicted DMix, Beta, BLim   3.8786E-02  1.0284E+00  7.9035E-01

Eigenvalues, unscaled except for SY+YY
   #     SY Real        SY Imag          SS             YY         SY+YY Real      SY+YY Imag
   1   4.817753E+00   0.000000E+00   4.531569E+00   5.213376E+00   9.433432E+00   0.000000E+00
   2   8.446731E-01   0.000000E+00   7.711123E-01   1.162708E+00   1.888717E+00   0.000000E+00
   3   5.723532E-01   0.000000E+00   4.331285E-01   6.239039E-01   1.144819E+00   0.000000E+00
   4   4.037284E-06   0.000000E+00   1.852582E-06   1.186619E-05   1.519387E-05   0.000000E+00
   5   2.294529E-08   0.000000E+00   3.307661E-09   1.732202E-07   2.038292E-07   0.000000E+00
   6  -5.919645E-17   0.000000E+00   1.911603E-10   2.320300E-08   2.935976E-08   0.000000E+00
   7   2.109062E-09   0.000000E+00  -1.499370E-16   8.569362E-10   9.085281E-10   0.000000E+00
 
:INFO :  Singular value  9.434E+00 Weight  1.000E+00 Projection  1.468E-03
:INFO :  Singular value  1.891E+00 Weight  1.000E+00 Projection  3.485E-04
:INFO :  Singular value  1.144E+00 Weight  1.000E+00 Projection -5.487E-04
:INFO :  Singular value  1.520E-05 Weight  8.494E-04 Projection -2.008E-03
:INFO :  Singular value  2.057E-07 Weight  1.557E-07 Projection  2.305E-06
:INFO :  Singular value  2.911E-08 Weight  3.118E-09 Projection  6.448E-08
:INFO :  Singular value  9.076E-10 Weight  3.031E-12 Projection -1.049E-11
:RANK :  ACTIVE   3.00/7  =  42.87 % ; YY RANK   3.00/7  =  42.86 %
 
:BLIM :  VZERO Control Off
:TRUST:  Step 1.43E+00  Charge 6.30E-02 (e) CTO  1.60E-01 (e) PW  2.24E-01 (e)
:DIRM :  MEMORY  7/8  SCALE   1.000 RED  0.23 PRED  0.28 NEXT  0.96 
:TRAVE:  Charge 9.64E-03 (e) CTO  1.93E-02 (e) PW  1.06E-02 (e)
:DIRP :  |MSR1|= 2.264E-03 |PRATT|= 4.609E-03 ANGLE=  43.4 DEGREES
:DIRQ :  |MSR1|= 2.408E-03 |PRATT|= 9.365E-03 ANGLE=  61.2 DEGREES
:DIRT :  |MSR1|= 3.305E-03 |PRATT|= 1.044E-02 ANGLE=  57.6 DEGREES
:MIX  :   MSD1   REGULARIZATION:  5.21E-04 GREED: 0.06208  Newton 1.00  0.3167                
     
       CHARGES OF MIXED CHARGE DENSITY
:CTO   : INTERSTITIAL CHARGE =     3.314808
:CPC   : PW Pseudocharge     =     5.307520
:CTO001: CHARGE SPHERE  1    =    12.342596

:NEC03: NUCLEAR AND ELECTRONIC CHARGE     28.00000    28.00000

PW CHANGE     H    K    L      Current       Change    Residue
:PTO001:      0    0    0  3.19060071E-02 -1.133E-05 -2.630E-05
:PTO002:     -1   -1   -1 -6.31796764E-02  1.610E-05  1.350E-04
:PTO004:      0   -2   -2 -1.41809462E-02  8.452E-05  1.572E-04
:PTO005:     -1   -1   -3  1.03748200E-02  1.228E-04  4.946E-05
:PTO006:     -2   -2   -2  9.58530579E-03  6.039E-05  2.245E-05
:PTO007:      0    0   -4  3.53795153E-03  3.461E-06 -4.888E-05
:PTO008:     -1   -3   -3  1.23402415E-03  6.799E-05  1.322E-04
:PTO010:     -2   -2   -4 -4.27738987E-03  5.926E-05  1.945E-04
:PTO011:     -3   -3   -3 -1.63990267E-03  8.444E-06  4.618E-05
:PTO012:     -1   -1   -5 -2.90823789E-03  3.593E-05  1.271E-04
:PTO013:      0   -4   -4 -6.37014622E-04  2.231E-05  5.782E-05
:PTO014:     -1   -3   -5 -2.16586710E-03  4.659E-05  1.395E-04

:ENE  : ********** TOTAL ENERGY IN Ry =        -1156.15984670

 Flat Integration
 New Mode for Coulomb Integral
 Consistent 3/8+Simpson combinations
 Extension of core to zero
 LDM version in phi
 Fifth-order quadrature in outwin


            ---------
:ITE009:  9. ITERATION
            ---------

:NATO :    1 INDEPENDENT AND    2 TOTAL ATOMS IN UNITCELL
       SUBSTANCE: blebleble                                                   

       LATTICE                      = F   
:POT  : POTENTIAL OPTION EX_LDA EC_LDA VX_LDA VC_LDA
:LAT  : LATTICE CONSTANTS= 10.26291 10.26291 10.26291    1.571    1.571    1.571
:VOL  : UNIT CELL VOLUME =     270.24152
       MODE OF CALCULATION IS       = RELA
       NON-SPINPOLARIZED CALCULATION
:IFFT  : FFT-parameters:   80   80   80 Factor: 2.00


   CONVERGENCE PARAMETER FOR PSEUDOCHARGE: NCON=  9
   MAXIMAL VALUE OF RMT(JATOM)*ABSK(NKK) : RK  =26.51350


:VKCOUL :  VK-COUL convergence: 0.766E-07
       ATOMNUMBER=  1 Si1        VCOUL-ZERO =  0.18178E+00
:FIT001: LUSE= 13 SIGMA OF V-XC FIT FOR ATOM  1  0.2882980E-02
:FIT001: LUSE= 13 SIGMA OF V-XC FIT FOR ATOM  1  0.2882980E-02
:DEN  : DENSITY INTEGRAL  =          -524.25704986   (Ry)
       ELS_POTENTIAL_AT Z=0 and Z=0.5:   0.42111   0.42111
       ELS_POTENTIAL_AT Y=0 and Y=0.5:   0.00000   0.00000
:VZERO:v0,v0c,v0x  -0.27517   0.42111  -0.69627 v5,v5c,v5x  -0.27517   0.42111  -0.69627
:VZERY:v0,v0c,v0x  -0.68364   0.00000  -0.68364 v5,v5c,v5x  -0.68364   0.00000  -0.68364
:VZERX:v0,v0c,v0x  -0.68364   0.00000  -0.68364 v5,v5c,v5x  -0.68364   0.00000  -0.68364
:LMAX-WF:   10   Non-Spherical LMAX:   4

          ATOMIC SPHERE DEPENDENT PARAMETERS FOR ATOM  Si1       
:e__0001: OVERALL ENERGY PARAMETER IS    0.1703
          OVERALL BASIS SET ON ATOM IS LAPW
:E0_0001: E( 0)=    0.1703
             APW+lo
:E1_0001: E( 1)=    0.1703
             APW+lo

       K=   0.00000   0.00000   0.00000            1
:RKM  : MATRIX SIZE   145LOs:   8  RKM= 6.63  WEIGHT= 1.00  PGR:    
       EIGENVALUES ARE:
:EIG00001:      -0.5099261    0.3700469    0.3700469    0.3700469    0.5556608
:EIG00006:       0.5556608    0.5556608    0.6028265    0.9332522    0.9422326
:EIG00011:       0.9422326    1.1873551    1.1873551    1.1873551    1.4778177
       ********************************************************

:KPT   :      NUMBER OF K-POINTS:    35
       Insulator, EF-inconsistency corrected
:GAP (global)   :  0.035263 Ry =     0.480 eV (accurate value if proper k-mesh)
         Bandranges (emin - emax) and occupancy:
:BAN00001:   1   -0.509926   -0.209374  2.00000000
:BAN00002:   2   -0.197045    0.370047  2.00000000
:BAN00003:   3    0.043000    0.370047  2.00000000
:BAN00004:   4    0.117206    0.370047  2.00000000
:BAN00005:   5    0.405310    0.647418  0.00000000
:BAN00006:   6    0.434671    0.790638  0.00000000
:BAN00007:   7    0.555661    1.050783  0.00000000
:BAN00008:   8    0.602826    1.063091  0.00000000
:BAN00009:   9    0.826136    1.220332  0.00000000
        Energy to separate low and high energystates: -999.00000


:NOE  : NUMBER OF ELECTRONS          =    8.000

:FER  : F E R M I - ENERGY(TETRAH.M.)=   0.3700468644
:GMA  : POTENTIAL AND CHARGE CUT-OFF  12.00 Ry**.5

:POS001: ATOM    1 X,Y,Z = 0.87500 0.37500 0.37500  MULT= 2  ZZ= 14.000  Si1       

       LMMAX  6
       LM=   0 0  4 0  4 4  6 0  6 4 -3 2

:CHA001: TOTAL VALENCE CHARGE INSIDE SPHERE   1 =   2.3419    (RMT=  2.2100 )
:PCS001: PARTIAL CHARGES SPHERE =  1 S,P,D,F,      D-EG,D-T2G 
:QTL001: 0.9506 1.2866 0.0951 0.0075 0.0000 0.0000 0.0000 0.0160 0.0790 0.0000 0.0000 0.0000
        Q-s-low E-s-low   Q-p-low E-p-low   Q-d-low E-d-low   Q-f-low E-f-low
:EPL001:  0.0000 10.0000    0.0000 10.0000    0.0000 10.0000    0.0000 10.0000
        Q-s-hi  E-s-hi    Q-p-hi  E-p-hi    Q-d-hi  E-d-hi    Q-f-hi  E-f-hi 
:EPH001:  0.9506 -0.2123    1.2866  0.1310    0.0951  0.1210    0.0075  0.0141

:CHA  : TOTAL VALENCE CHARGE INSIDE UNIT CELL =       8.000000

:SUM  : SUM OF EIGENVALUES =          -0.027286969


        1.ATOM      Si1                   4 CORE STATES
:1S 001: 1S                -129.891266437 Ry
:2S 001: 2S                  -9.398348569 Ry
:2PP001: 2P*                 -6.258040674 Ry
:2P 001: 2P                  -6.210611458 Ry
:CINT001 Core Integral Atom   1    9.998665

       DENSITY AT NUCLEUS
        JATOM        VALENCE       SEMI-CORE          CORE           TOTAL
:RTO001:   1        7.688509        0.000000     1868.498500     1876.187008
     
       CHARGES OF NEW CHARGE DENSITY
:NTO   : INTERSTITIAL CHARGE =     3.316243
:NPC   : PW Pseudocharge     =     5.294996
:NTO001: CHARGE SPHERE  1    =    12.340543

:NEC01: NUCLEAR AND ELECTRONIC CHARGE     28.00000    27.99733
     
       CHARGES OF OLD CHARGE DENSITY
:OTO   : INTERSTITIAL CHARGE =     3.314808
:OPC   : PW Pseudocharge     =     5.307520
:OTO001: CHARGE SPHERE  1    =    12.342596

:NEC02: NUCLEAR AND ELECTRONIC CHARGE     28.00000    28.00000
     
       CONVERGENCE TEST
:DTO001: DIFFERENCE IN SPHERE  1 =  0.0058969

:DIS  :  CHARGE DISTANCE       ( 0.0058969 for atom    1 spin 1)      0.0058969
 PW Mixed is           49
 
******************************************************
* MULTISECANT MIXING VER9 RELEASE 10.4.0              *
* Standard Mode with controls                        *
* Fixed density scale                                *
* Regularization       1.000E-04                     *
* Trust Upper Limit    5.000E+00                     *
* Max Number of Memory Steps    8                    *
******************************************************
 
:PWTMP   1.7982E+02  1.7270E+02  2.7024E+02
:PLANE:  PW TOTAL      1.8361 DISTAN   3.51E-03  1.91E-01 %
:CHARG:  CLM/ATOM    114.9231 DISTAN   8.42E-03  7.33E-03 %
 
Step History
        DMIX         DMIXT        Red     Pred      Trust     Lambda    MagRel    MagAbs     Beta
  1   3.5000E-02   3.5000E-02 -1.00E+00  1.00E+00 -1.00E+01  1.00E+00  3.50E-02  3.50E-02  1.00E+00
  2   3.5000E-02   3.5000E-02  5.60E-01  1.00E+00 -1.00E+01  1.00E+00  3.50E-02  2.93E-02  1.00E+00
  3   3.8851E-02   3.8851E-02  9.72E-01  1.00E+00 -1.00E+01  3.15E-02  3.89E-02  1.83E-02  1.00E+00
  4   4.4704E-02   4.4704E-02  9.49E-01  1.00E+00  3.20E-01  1.06E+00  4.47E-02  2.04E-02  9.83E-01
  5   1.1176E-01   6.8748E-02  6.27E-01  6.28E-01  3.31E-01  1.10E+00  3.31E-01  1.44E-01  1.00E+00
  6   4.4704E-02   4.0365E-02  3.49E-01  3.56E-01  6.02E-01  1.05E+00  6.02E-01  1.64E-01  1.00E+00
  7   4.6838E-02   4.6838E-02  4.80E-01  5.15E-01  8.03E-01  3.83E-01  7.79E-01  7.40E-02  1.00E+00
  8   1.1710E-01   1.1710E-01  2.29E-01  2.82E-01  1.07E+00  8.77E-01  7.19E-01  3.28E-02  1.00E+00
  9   6.2084E-02   6.2084E-02 -1.00E+00  9.58E-01  1.43E+00  1.00E+00  3.17E-01  3.31E-03  1.00E+00
:JACOBIANS    1.695E+00   1.157E+00
  
:NORMS:  1/Froebius, Min, Max, Used   0.9143E+00  0.4559E+00  0.9989E+00  0.9404E+00
:INFO :  Number of Memory Steps    8 Skipping    0
:INFO :  SLambda=    0.8656483931  Max    0.8656483931
:PREDicted Charge, CTotal, PW Trust    2.060E-03   4.119E-03   3.814E-03
:PREDicted DMix, Beta, BLim   7.0695E-01  1.7744E+00  8.3150E-01

Eigenvalues, unscaled except for SY+YY
   #     SY Real        SY Imag          SS             YY         SY+YY Real      SY+YY Imag
   1   5.766632E+00   0.000000E+00   5.463579E+00   6.177895E+00   1.116590E+01   0.000000E+00
   2   8.240980E-01   0.000000E+00   7.551579E-01   1.139504E+00   1.838943E+00   0.000000E+00
   3   5.843984E-01   0.000000E+00   4.448367E-01   6.312397E-01   1.154453E+00   0.000000E+00
   4   3.645156E-02   0.000000E+00   2.459711E-02   5.135557E-02   8.339168E-02   0.000000E+00
   5   6.251654E-07   0.000000E+00   7.345517E-08   5.455521E-06   5.988130E-06   0.000000E+00
   6   5.544029E-09   0.000000E+00   6.250052E-10   6.599045E-08   7.020403E-08   0.000000E+00
   7   1.566895E-16   0.000000E+00   1.811094E-11   7.046301E-09   8.859132E-10   0.000000E+00
   8   3.477128E-10   0.000000E+00   4.310604E-17   8.359366E-10   7.378274E-09   0.000000E+00
 
:INFO :  Singular value  1.117E+01 Weight  1.000E+00 Projection  1.445E-04
:INFO :  Singular value  1.841E+00 Weight  1.000E+00 Projection  3.495E-04
:INFO :  Singular value  1.153E+00 Weight  1.000E+00 Projection -4.484E-04
:INFO :  Singular value  8.339E-02 Weight  9.999E-01 Projection -4.015E-02
:INFO :  Singular value  5.989E-06 Weight  9.396E-05 Projection  7.571E-07
:INFO :  Singular value  7.026E-08 Weight  1.293E-08 Projection  1.427E-08
[...]
       ATOMNUMBER=  1 Si1        VCOUL-ZERO =  0.18132E+00
:FIT001: LUSE= 13 SIGMA OF V-XC FIT FOR ATOM  1  0.2859589E-02
:FIT001: LUSE= 13 SIGMA OF V-XC FIT FOR ATOM  1  0.2859589E-02
:DEN  : DENSITY INTEGRAL  =          -524.26729711   (Ry)
       ELS_POTENTIAL_AT Z=0 and Z=0.5:   0.42071   0.42071
       ELS_POTENTIAL_AT Y=0 and Y=0.5:   0.00000   0.00000
:VZERO:v0,v0c,v0x  -0.27538   0.42071  -0.69608 v5,v5c,v5x  -0.27538   0.42071  -0.69608
:VZERY:v0,v0c,v0x  -0.68368   0.00000  -0.68368 v5,v5c,v5x  -0.68368   0.00000  -0.68368
:VZERX:v0,v0c,v0x  -0.68368   0.00000  -0.68368 v5,v5c,v5x  -0.68368   0.00000  -0.68368
:LMAX-WF:   10   Non-Spherical LMAX:   4

          ATOMIC SPHERE DEPENDENT PARAMETERS FOR ATOM  Si1       
:e__0001: OVERALL ENERGY PARAMETER IS    0.1696
          OVERALL BASIS SET ON ATOM IS LAPW
:E0_0001: E( 0)=    0.1696
             APW+lo
:E1_0001: E( 1)=    0.1696
             APW+lo

       K=   0.00000   0.00000   0.00000            1
:RKM  : MATRIX SIZE   145LOs:   8  RKM= 6.63  WEIGHT= 1.00  PGR:    
       EIGENVALUES ARE:
:EIG00001:      -0.5103108    0.3695542    0.3695542    0.3695542    0.5553527
:EIG00006:       0.5553527    0.5553527    0.6024033    0.9332122    0.9418862
:EIG00011:       0.9418862    1.1872451    1.1872451    1.1872451    1.4779518
       ********************************************************

:KPT   :      NUMBER OF K-POINTS:   195
       Insulator, EF-inconsistency corrected
:GAP (global)   :  0.035561 Ry =     0.484 eV (accurate value if proper k-mesh)
         Bandranges (emin - emax) and occupancy:
:BAN00001:   1   -0.510311   -0.194215  2.00000000
:BAN00002:   2   -0.206038    0.369554  2.00000000
:BAN00003:   3    0.042709    0.369554  2.00000000
:BAN00004:   4    0.086049    0.369554  2.00000000
:BAN00005:   5    0.405115    0.652964  0.00000000
:BAN00006:   6    0.414352    0.790341  0.00000000
:BAN00007:   7    0.555353    1.103150  0.00000000
:BAN00008:   8    0.602403    1.103150  0.00000000
:BAN00009:   9    0.817652    1.219974  0.00000000
        Energy to separate low and high energystates: -999.00000


:NOE  : NUMBER OF ELECTRONS          =    8.000

:FER  : F E R M I - ENERGY(TETRAH.M.)=   0.3695541749
:GMA  : POTENTIAL AND CHARGE CUT-OFF  12.00 Ry**.5

:POS001: ATOM    1 X,Y,Z = 0.87500 0.37500 0.37500  MULT= 2  ZZ= 14.000  Si1       

       LMMAX  6
       LM=   0 0  4 0  4 4  6 0  6 4 -3 2

:CHA001: TOTAL VALENCE CHARGE INSIDE SPHERE   1 =   2.3421    (RMT=  2.2100 )
:PCS001: PARTIAL CHARGES SPHERE =  1 S,P,D,F,      D-EG,D-T2G 
:QTL001: 0.9511 1.2863 0.0951 0.0075 0.0000 0.0000 0.0000 0.0161 0.0791 0.0000 0.0000 0.0000
        Q-s-low E-s-low   Q-p-low E-p-low   Q-d-low E-d-low   Q-f-low E-f-low
:EPL001:  0.0000 10.0000    0.0000 10.0000    0.0000 10.0000    0.0000 10.0000
        Q-s-hi  E-s-hi    Q-p-hi  E-p-hi    Q-d-hi  E-d-hi    Q-f-hi  E-f-hi 
:EPH001:  0.9511 -0.2125    1.2863  0.1305    0.0951  0.1206    0.0075  0.0133

:CHA  : TOTAL VALENCE CHARGE INSIDE UNIT CELL =       8.000000

:SUM  : SUM OF EIGENVALUES =          -0.030641154


        1.ATOM      Si1                   4 CORE STATES
:1S 001: 1S                -129.889151988 Ry
:2S 001: 2S                  -9.398158408 Ry
:2PP001: 2P*                 -6.257681720 Ry
:2P 001: 2P                  -6.210259276 Ry
:CINT001 Core Integral Atom   1    9.998664

       DENSITY AT NUCLEUS
        JATOM        VALENCE       SEMI-CORE          CORE           TOTAL
:RTO001:   1        7.694407        0.000000     1868.483137     1876.177543
     
       CHARGES OF NEW CHARGE DENSITY
:NTO   : INTERSTITIAL CHARGE =     3.315775
:NPC   : PW Pseudocharge     =     5.296004
:NTO001: CHARGE SPHERE  1    =    12.340776

:NEC01: NUCLEAR AND ELECTRONIC CHARGE     28.00000    27.99733
     
       CHARGES OF OLD CHARGE DENSITY
:OTO   : INTERSTITIAL CHARGE =     3.318418
:OPC   : PW Pseudocharge     =     5.300294
:OTO001: CHARGE SPHERE  1    =    12.340791

:NEC02: NUCLEAR AND ELECTRONIC CHARGE     28.00000    28.00000
     
       CONVERGENCE TEST
:DTO001: DIFFERENCE IN SPHERE  1 =  0.0000123

:DIS  :  CHARGE DISTANCE       ( 0.0000123 for atom    1 spin 1)      0.0000123
 PW Mixed is           51
 
******************************************************
* MULTISECANT MIXING VER9 RELEASE 10.4.0              *
* Standard Mode with controls                        *
* Fixed density scale                                *
* Regularization       1.000E-04                     *
* Trust Upper Limit    5.000E+00                     *
* Max Number of Memory Steps    8                    *
******************************************************
 
 :WARNING:  Number of PWs changed, you may want to restart broyden after iterati
 on          20          51          49
:PWTMP   1.7982E+02  1.7270E+02  2.7024E+02
:PLANE:  PW TOTAL      1.8343 DISTAN   1.72E-05  9.38E-04 %
:CHARG:  CLM/ATOM    114.9256 DISTAN   2.09E-05  1.82E-05 %
 
Step History
        DMIX         DMIXT        Red     Pred      Trust     Lambda    MagRel    MagAbs     Beta
 13   8.2206E-02   8.2206E-02  5.00E+00  2.74E-01  1.13E+01  1.39E+00  6.49E-01  5.53E-05  1.00E+00
 14   6.3344E-02   6.3344E-02  1.00E+00  3.00E-02  8.49E+00  1.39E+00  3.22E-03  2.60E-06  9.91E-01
 15   1.5836E-01   1.5836E-01  9.84E-01  2.07E-01  6.90E+00  1.36E+00  2.45E-02  1.98E-05  7.93E-01
 16   1.3720E-01   1.3720E-01  9.94E-01  8.65E-03  3.64E+00  1.34E+00  9.95E-03  7.93E-06  9.91E-01
 17   6.6843E-02   6.6843E-02  9.95E-01  2.78E-04  1.85E+00  3.62E-01  4.29E-03  3.40E-06  1.00E+00
 18   1.6711E-01   1.6711E-01  8.83E-01  5.44E-03  9.39E-01  1.00E+00  1.10E-01  8.68E-05  1.00E+00
 19   1.6664E-01   1.6664E-01  4.66E-01  3.16E-02  9.60E-01  9.51E-01  5.05E-01  3.52E-04  1.00E+00
 20   7.9809E-02   7.9809E-02  1.91E-01  9.37E-02  1.40E+00  3.22E-01  7.81E-01  2.53E-04  1.00E+00
 21   6.9841E-02   6.9841E-02 -1.00E+00  4.72E-01  1.86E+00  1.00E+00  7.53E-01  4.65E-05  1.00E+00
:JACOBIANS    1.283E+00   3.041E+00
  
:NORMS:  1/Froebius, Min, Max, Used   0.9416E+00  0.8819E+00  0.1014E+01  0.9417E+00
:INFO :  Number of Memory Steps    8 Skipping   12
:INFO :  SLambda=    1.0000000000  Max    1.0000000000
:PREDicted Charge, CTotal, PW Trust    1.964E-05   3.928E-05   2.243E-05
:PREDicted DMix, Beta, BLim   4.7549E-01  1.0592E+00  8.4363E-01

Eigenvalues, unscaled except for SY+YY
   #     SY Real        SY Imag          SS             YY         SY+YY Real      SY+YY Imag
   1   7.429096E+00   0.000000E+00   7.091058E+00   7.996627E+00   1.542571E+01   0.000000E+00
   2   1.856625E-03   0.000000E+00   1.702641E-03   2.544657E-03   4.396859E-03   0.000000E+00
   3   6.686899E-04   0.000000E+00   5.868851E-04   7.719800E-04   1.457812E-03   0.000000E+00
   4   4.101844E-05   0.000000E+00   3.151235E-05   4.895333E-05   9.092490E-05   0.000000E+00
   5   7.441832E-06   0.000000E+00   7.416642E-06   7.448297E-06   1.491116E-05   0.000000E+00
   6   1.416534E-07   0.000000E+00   1.127710E-07   1.905512E-07   3.299385E-07   0.000000E+00
   7   2.233845E-08   0.000000E+00   2.268121E-08   2.209856E-08   4.381085E-08   0.000000E+00
   8   1.194932E-09   0.000000E+00   9.702422E-10   1.320351E-09   2.530802E-09   0.000000E+00
 
:INFO :  Singular value  1.543E+01 Weight  1.000E+00 Projection  1.389E-06
:INFO :  Singular value  4.399E-03 Weight  9.680E-01 Projection -4.248E-04
:INFO :  Singular value  1.457E-03 Weight  7.686E-01 Projection -3.464E-04
:INFO :  Singular value  9.093E-05 Weight  1.277E-02 Projection -1.176E-05
:INFO :  Singular value  1.491E-05 Weight  3.475E-04 Projection -1.577E-07
:INFO :  Singular value  3.299E-07 Weight  1.702E-07 Projection  1.645E-09
:INFO :  Singular value  4.382E-08 Weight  3.003E-09 Projection  8.380E-11
:INFO :  Singular value  2.530E-09 Weight  1.001E-11 Projection  1.646E-12
:RANK :  ACTIVE   2.75/8  =  34.37 % ; YY RANK   2.40/8  =  29.95 %
 
:BLIM :  VZERO Control Off
:TRUST:  Step 2.48E+00  Charge 2.62E-03 (e) CTO  5.82E-03 (e) PW  8.14E-03 (e)
:DIRM :  MEMORY  8/8  SCALE   1.000 RED  0.44 PRED  0.47 NEXT  0.40 
:TRAVE:  Charge 1.84E-05 (e) CTO  3.68E-05 (e) PW  2.72E-05 (e)
:DIRP :  |MSR1|= 1.200E-05 |PRATT|= 1.720E-05 ANGLE=  13.2 DEGREES
:DIRQ :  |MSR1|= 1.439E-05 |PRATT|= 2.093E-05 ANGLE=  15.3 DEGREES
:DIRT :  |MSR1|= 1.874E-05 |PRATT|= 2.709E-05 ANGLE=  14.5 DEGREES
:MIX  :   MSR1   REGULARIZATION:  8.00E-04 GREED: 0.17460  Newton 1.00  0.6919                
     
       CHARGES OF MIXED CHARGE DENSITY
:CTO   : INTERSTITIAL CHARGE =     3.318437
:CPC   : PW Pseudocharge     =     5.300284
:CTO001: CHARGE SPHERE  1    =    12.340781

:NEC03: NUCLEAR AND ELECTRONIC CHARGE     28.00000    28.00000

PW CHANGE     H    K    L      Current       Change    Residue
:PTO001:      0    0    0  3.18926614E-02  3.726E-08  2.789E-08
:PTO002:     -1   -1   -1 -6.30697462E-02  5.077E-07  7.873E-07
:PTO004:      0   -2   -2 -1.41291328E-02 -5.586E-07 -6.154E-07
:PTO005:     -1   -1   -3  1.02761251E-02 -2.125E-07 -3.463E-07
:PTO006:     -2   -2   -2  9.54254606E-03  1.608E-08 -2.179E-08
:PTO007:      0    0   -4  3.48280711E-03 -1.225E-08 -8.351E-08
:PTO008:     -1   -3   -3  1.30462400E-03  1.771E-07  3.017E-07
:PTO010:     -2   -2   -4 -4.13537103E-03  1.307E-07  3.406E-07
:PTO011:     -3   -3   -3 -1.60055010E-03  3.031E-08  9.072E-08
:PTO012:     -1   -1   -5 -2.81463635E-03  1.484E-07  3.097E-07
:PTO013:      0   -4   -4 -6.00127838E-04  6.334E-08  1.275E-07
:PTO014:     -1   -3   -5 -2.06991654E-03  1.926E-07  3.739E-07

:ENE  : *WARNING** TOTAL ENERGY IN Ry =        -1156.15998094

 Flat Integration
 New Mode for Coulomb Integral
 Consistent 3/8+Simpson combinations
 Extension of core to zero
 LDM version in phi
 Fifth-order quadrature in outwin


            ---------
:ITE022: 22. ITERATION
            ---------

:NATO :    1 INDEPENDENT AND    2 TOTAL ATOMS IN UNITCELL
       SUBSTANCE: blebleble                                                   

       LATTICE                      = F   
:POT  : POTENTIAL OPTION EX_LDA EC_LDA VX_LDA VC_LDA
:LAT  : LATTICE CONSTANTS= 10.26291 10.26291 10.26291    1.571    1.571    1.571
:VOL  : UNIT CELL VOLUME =     270.24152
       MODE OF CALCULATION IS       = RELA
       NON-SPINPOLARIZED CALCULATION
:IFFT  : FFT-parameters:   80   80   80 Factor: 2.00


   CONVERGENCE PARAMETER FOR PSEUDOCHARGE: NCON=  9
   MAXIMAL VALUE OF RMT(JATOM)*ABSK(NKK) : RK  =26.51350


:VKCOUL :  VK-COUL convergence: 0.766E-07
       ATOMNUMBER=  1 Si1        VCOUL-ZERO =  0.18132E+00
:FIT001: LUSE= 13 SIGMA OF V-XC FIT FOR ATOM  1  0.2859640E-02
:FIT001: LUSE= 13 SIGMA OF V-XC FIT FOR ATOM  1  0.2859640E-02
:DEN  : DENSITY INTEGRAL  =          -524.26708648   (Ry)
       ELS_POTENTIAL_AT Z=0 and Z=0.5:   0.42071   0.42071
       ELS_POTENTIAL_AT Y=0 and Y=0.5:   0.00000   0.00000
:VZERO:v0,v0c,v0x  -0.27538   0.42071  -0.69608 v5,v5c,v5x  -0.27538   0.42071  -0.69608
:VZERY:v0,v0c,v0x  -0.68368   0.00000  -0.68368 v5,v5c,v5x  -0.68368   0.00000  -0.68368
:VZERX:v0,v0c,v0x  -0.68368   0.00000  -0.68368 v5,v5c,v5x  -0.68368   0.00000  -0.68368
:LMAX-WF:   10   Non-Spherical LMAX:   4

          ATOMIC SPHERE DEPENDENT PARAMETERS FOR ATOM  Si1       
:e__0001: OVERALL ENERGY PARAMETER IS    0.1696
          OVERALL BASIS SET ON ATOM IS LAPW
:E0_0001: E( 0)=    0.1696
             APW+lo
:E1_0001: E( 1)=    0.1696
             APW+lo

       K=   0.00000   0.00000   0.00000            1
:RKM  : MATRIX SIZE   145LOs:   8  RKM= 6.63  WEIGHT= 1.00  PGR:    
       EIGENVALUES ARE:
:EIG00001:      -0.5103137    0.3695504    0.3695504    0.3695504    0.5553506
:EIG00006:       0.5553506    0.5553506    0.6023991    0.9332103    0.9418844
:EIG00011:       0.9418844    1.1872446    1.1872446    1.1872446    1.4779500
       ********************************************************

:KPT   :      NUMBER OF K-POINTS:   195
       Insulator, EF-inconsistency corrected
:GAP (global)   :  0.035563 Ry =     0.484 eV (accurate value if proper k-mesh)
         Bandranges (emin - emax) and occupancy:
:BAN00001:   1   -0.510314   -0.194219  2.00000000
:BAN00002:   2   -0.206041    0.369550  2.00000000
:BAN00003:   3    0.042707    0.369550  2.00000000
:BAN00004:   4    0.086046    0.369550  2.00000000
:BAN00005:   5    0.405113    0.652962  0.00000000
:BAN00006:   6    0.414350    0.790339  0.00000000
:BAN00007:   7    0.555351    1.103147  0.00000000
:BAN00008:   8    0.602399    1.103147  0.00000000
:BAN00009:   9    0.817650    1.219972  0.00000000
        Energy to separate low and high energystates: -999.00000


:NOE  : NUMBER OF ELECTRONS          =    8.000

:FER  : F E R M I - ENERGY(TETRAH.M.)=   0.3695503558
:GMA  : POTENTIAL AND CHARGE CUT-OFF  12.00 Ry**.5

:POS001: ATOM    1 X,Y,Z = 0.87500 0.37500 0.37500  MULT= 2  ZZ= 14.000  Si1       

       LMMAX  6
       LM=   0 0  4 0  4 4  6 0  6 4 -3 2

:CHA001: TOTAL VALENCE CHARGE INSIDE SPHERE   1 =   2.3421    (RMT=  2.2100 )
:PCS001: PARTIAL CHARGES SPHERE =  1 S,P,D,F,      D-EG,D-T2G 
:QTL001: 0.9511 1.2863 0.0951 0.0075 0.0000 0.0000 0.0000 0.0161 0.0791 0.0000 0.0000 0.0000
        Q-s-low E-s-low   Q-p-low E-p-low   Q-d-low E-d-low   Q-f-low E-f-low
:EPL001:  0.0000 10.0000    0.0000 10.0000    0.0000 10.0000    0.0000 10.0000
        Q-s-hi  E-s-hi    Q-p-hi  E-p-hi    Q-d-hi  E-d-hi    Q-f-hi  E-f-hi 
:EPH001:  0.9511 -0.2125    1.2863  0.1305    0.0951  0.1206    0.0075  0.0133

:CHA  : TOTAL VALENCE CHARGE INSIDE UNIT CELL =       8.000000

:SUM  : SUM OF EIGENVALUES =          -0.030665662


        1.ATOM      Si1                   4 CORE STATES
:1S 001: 1S                -129.889162994 Ry
:2S 001: 2S                  -9.398167186 Ry
:2PP001: 2P*                 -6.257690642 Ry
:2P 001: 2P                  -6.210268189 Ry
:CINT001 Core Integral Atom   1    9.998664

       DENSITY AT NUCLEUS
        JATOM        VALENCE       SEMI-CORE          CORE           TOTAL
:RTO001:   1        7.694431        0.000000     1868.483156     1876.177587
     
       CHARGES OF NEW CHARGE DENSITY
:NTO   : INTERSTITIAL CHARGE =     3.315766
:NPC   : PW Pseudocharge     =     5.296016
:NTO001: CHARGE SPHERE  1    =    12.340781

:NEC01: NUCLEAR AND ELECTRONIC CHARGE     28.00000    27.99733
     
       CHARGES OF OLD CHARGE DENSITY
:OTO   : INTERSTITIAL CHARGE =     3.318437
:OPC   : PW Pseudocharge     =     5.300284
:OTO001: CHARGE SPHERE  1    =    12.340781

:NEC02: NUCLEAR AND ELECTRONIC CHARGE     28.00000    28.00000
     
       CONVERGENCE TEST
:DTO001: DIFFERENCE IN SPHERE  1 =  0.0000027

:DIS  :  CHARGE DISTANCE       ( 0.0000027 for atom    1 spin 1)      0.0000027
 PW Mixed is           51
 
******************************************************
* MULTISECANT MIXING VER9 RELEASE 10.4.0              *
* Standard Mode with controls                        *
* Fixed density scale                                *
* Regularization       1.000E-04                     *
* Trust Upper Limit    5.000E+00                     *
* Max Number of Memory Steps    8                    *
******************************************************
 
 :WARNING:  Number of PWs changed, you may want to restart broyden after iterati
 on          21          51          49
:PWTMP   1.7982E+02  1.7270E+02  2.7024E+02
:PLANE:  PW TOTAL      1.8343 DISTAN   5.23E-06  2.85E-04 %
:CHARG:  CLM/ATOM    114.9256 DISTAN   5.19E-06  4.52E-06 %
 
Step History
        DMIX         DMIXT        Red     Pred      Trust     Lambda    MagRel    MagAbs     Beta
 14   6.3344E-02   6.3344E-02  1.00E+00  3.00E-02  8.49E+00  1.39E+00  3.22E-03  2.60E-06  9.91E-01
 15   1.5836E-01   1.5836E-01  9.84E-01  2.07E-01  6.90E+00  1.36E+00  2.45E-02  1.98E-05  7.93E-01
 16   1.3720E-01   1.3720E-01  9.94E-01  8.65E-03  3.64E+00  1.34E+00  9.95E-03  7.93E-06  9.91E-01
 17   6.6843E-02   6.6843E-02  9.95E-01  2.78E-04  1.85E+00  3.62E-01  4.29E-03  3.40E-06  1.00E+00
 18   1.6711E-01   1.6711E-01  8.83E-01  5.44E-03  9.39E-01  1.00E+00  1.10E-01  8.68E-05  1.00E+00
 19   1.6664E-01   1.6664E-01  4.66E-01  3.16E-02  9.60E-01  9.51E-01  5.05E-01  3.52E-04  1.00E+00
 20   7.9809E-02   7.9809E-02  1.91E-01  9.37E-02  1.40E+00  3.22E-01  7.81E-01  2.53E-04  1.00E+00
 21   6.9841E-02   6.9841E-02  4.39E-01  4.72E-01  1.86E+00  1.00E+00  7.53E-01  4.65E-05  1.00E+00
 22   1.7460E-01   1.7460E-01 -1.00E+00  4.00E-01  2.48E+00  1.00E+00  6.92E-01  1.87E-05  1.00E+00
:JACOBIANS    9.421E-01   2.269E+00
  
:NORMS:  1/Froebius, Min, Max, Used   0.9089E+00  0.8055E+00  0.1024E+01  0.9208E+00
:INFO :  Number of Memory Steps    8 Skipping   13
:INFO :  SLambda=    0.7643351360  Max    0.7643351360
:PREDicted Charge, CTotal, PW Trust    1.100E-05   2.200E-05   5.350E-06
:PREDicted DMix, Beta, BLim   1.4182E-01  1.0988E+00  8.2755E-01

Eigenvalues, unscaled except for SY+YY
   #     SY Real        SY Imag          SS             YY         SY+YY Real      SY+YY Imag
   1   6.285241E+00   0.000000E+00   5.920818E+00   6.983488E+00   1.177818E+01   0.000000E+00
   2   7.831835E-01   0.000000E+00   6.874843E-01   1.015822E+00   1.623775E+00   0.000000E+00
   3   5.715311E-04   0.000000E+00   5.628335E-04   5.860141E-04   1.022402E-03   0.000000E+00
   4   4.549194E-05   0.000000E+00   3.033540E-05   8.479865E-05   1.203769E-04   0.000000E+00
   5   7.276980E-06   0.000000E+00   6.080578E-06   1.331370E-05   1.936720E-05   0.000000E+00
   6   5.173479E-06   0.000000E+00   3.541986E-06   5.824410E-06   1.015662E-05   0.000000E+00
   7   5.289721E-08   0.000000E+00   4.259336E-08   6.069989E-08   1.031808E-07   0.000000E+00
   8   3.207184E-10   0.000000E+00   1.608926E-10   8.103126E-10   1.194625E-09   0.000000E+00
 
:INFO :  Singular value  1.178E+01 Weight  1.000E+00 Projection -6.078E-08
:INFO :  Singular value  1.624E+00 Weight  1.000E+00 Projection -3.269E-06
:INFO :  Singular value  1.022E-03 Weight  6.819E-01 Projection -7.400E-05
:INFO :  Singular value  1.213E-04 Weight  2.928E-02 Projection -1.025E-05
:INFO :  Singular value  1.926E-05 Weight  7.598E-04 Projection  6.187E-07
:INFO :  Singular value  1.014E-05 Weight  2.107E-04 Projection -2.577E-08
:INFO :  Singular value  1.032E-07 Weight  2.183E-08 Projection -2.463E-10
:INFO :  Singular value  1.195E-09 Weight  2.926E-12 Projection -3.977E-13
:RANK :  ACTIVE   2.71/8  =  33.90 % ; YY RANK   2.43/8  =  30.35 %
 
:BLIM :  VZERO Control Off
:TRUST:  Step 3.31E+00  Charge 2.10E-03 (e) CTO  4.65E-03 (e) PW  6.51E-03 (e)
:DIRM :  MEMORY  8/8  SCALE   1.000 RED  0.27 PRED  0.40 NEXT  0.87 
:TRAVE:  Charge 9.56E-06 (e) CTO  1.91E-05 (e) PW  1.40E-05 (e)
:DIRP :  |MSR1|= 1.811E-06 |PRATT|= 5.229E-06 ANGLE=  34.1 DEGREES
:DIRQ :  |MSR1|= 3.082E-06 |PRATT|= 5.190E-06 ANGLE=  27.8 DEGREES
:DIRT :  |MSR1|= 3.574E-06 |PRATT|= 7.367E-06 ANGLE=  33.4 DEGREES
:MIX  :   MSD1   REGULARIZATION:  6.98E-04 GREED: 0.13763  Newton 1.00  0.4852                
     
       CHARGES OF MIXED CHARGE DENSITY
:CTO   : INTERSTITIAL CHARGE =     3.318439
:CPC   : PW Pseudocharge     =     5.300281
:CTO001: CHARGE SPHERE  1    =    12.340781

:NEC03: NUCLEAR AND ELECTRONIC CHARGE     28.00000    28.00000

PW CHANGE     H    K    L      Current       Change    Residue
:PTO001:      0    0    0  3.18926567E-02 -4.626E-09 -1.329E-09
:PTO002:     -1   -1   -1 -6.30696835E-02  6.268E-08  1.941E-08
:PTO004:      0   -2   -2 -1.41291949E-02 -6.206E-08 -2.584E-07
:PTO005:     -1   -1   -3  1.02761114E-02 -1.370E-08 -1.032E-07
:PTO006:     -2   -2   -2  9.54256306E-03  1.701E-08  7.101E-08
:PTO007:      0    0   -4  3.48279053E-03 -1.658E-08 -4.600E-08
:PTO008:     -1   -3   -3  1.30467418E-03  5.018E-08  1.999E-07
:PTO010:     -2   -2   -4 -4.13531044E-03  6.059E-08  1.915E-07
:PTO011:     -3   -3   -3 -1.60053345E-03  1.666E-08  4.229E-08
:PTO012:     -1   -1   -5 -2.81458334E-03  5.301E-08  1.396E-07
:PTO013:      0   -4   -4 -6.00106595E-04  2.124E-08  6.459E-08
:PTO014:     -1   -3   -5 -2.06985479E-03  6.175E-08  1.666E-07

:ENE  : *WARNING** TOTAL ENERGY IN Ry =        -1156.15998094

